category,composition,snlgroup_id 1,sg_num 1,task_id 1,snlgroup_id 2,sg_num 2,task_id 2,delta_energy,delta_bandgap,delta_volume_per_atom,rms_dist,scenario
diff. SGs,C1 Li4 O4,87044,8,mp-549565,85580,160,mp-550593,0.00663,0.196,0.476,"(0.0776,0.135)",different
diff. SGs,C1 Li4 O4,87044,8,mp-549565,5477,215,mp-546202,0.00785,0.375,0.72,"(0.11,0.184)",different
diff. SGs,C1 Li4 O4,85580,160,mp-550593,5477,215,mp-546202,0.00122,0.178,0.244,"(0.0499,0.0671)",different
diff. SGs,C1 Li4 O4,85445,5,mp-550320,87009,8,mp-549389,0.0519,1.01,1.14,"(0.189,0.297)",different
diff. SGs,C1 Li4 O4,85445,5,mp-550320,5480,121,mp-551848,0.0529,1.26,1.17,"(0.212,0.298)",different
diff. SGs,C1 Li4 O4,87009,8,mp-549389,5480,121,mp-551848,0.00099,0.251,0.0289,"(0.0416,0.068)",different
diff. SGs,F11 Mn6 O1,172189,3,mp-780301,173366,1,mp-850259,0.0525,0.36,0.991,"(0.256,0.388)",different
diff. SGs,F11 Mn6 O1,173793,1,mp-850448,163837,8,mp-764010,0.0392,0.439,1.01,"(0.243,0.335)",different
diff. SGs,Ca1 H16 O10,150964,1,mp-626279,150924,9,mp-626230,0.0137,0.0131,0.0802,"(0.206,0.5)",different
diff. SGs,Ca1 H16 O10,150964,1,mp-626279,150925,7,mp-626227,0.0149,0.002,0.0889,"(0.166,0.566)",different
diff. SGs,F11 Mn6 O1,171380,1,mp-778559,163593,12,mp-765683,0.0233,1.19,1.09,"(0.26,0.368)",different
diff. SGs,Ca1 H16 O10,150924,9,mp-626230,150925,7,mp-626227,0.0012,0.0111,0.00868,"(0.13,0.435)",similar
diff. SGs,Ca1 H16 O10,150924,9,mp-626230,151067,1,mp-626552,0.0191,0.0905,0.00057,"(0.153,0.399)",different
diff. SGs,Bi2 O3,49931,8,mp-673244,50256,1,mp-684654,0.00425,0.0452,0.184,"(0.106,0.198)",similar
diff. SGs,F11 Mn6 O1,163247,4,mp-764526,172144,8,mp-780473,0.0545,0.254,1.12,"(0.252,0.323)",different
diff. SGs,Ca1 H16 O10,150925,7,mp-626227,151067,1,mp-626552,0.0203,0.0794,0.00811,"(0.144,0.393)",different
diff. SGs,F11 Mn6 O1,172867,4,mp-780525,172144,8,mp-780473,0.0555,0.386,1.12,"(0.264,0.367)",different
diff. SGs,Li1 O4 Si1 V1,157320,14,mp-767092,157705,33,mp-767050,0.00236,0.105,0.027,"(0.218,0.521)",different
diff. SGs,Co2 Li1 O4,174631,4,mp-774082,156455,74,mp-763702,0.0758,0.623,0.12,"(0.296,0.751)",different
diff. SGs,Co2 Li1 O4,174631,4,mp-774082,54302,227,mp-25471,0.104,0.628,0.473,"(0.038,0.0573)",different
same SGs,Cd1 I2,19858,156,mp-570781,19850,156,mp-570671,0.000112,0.0109,0.178,,
same SGs,O2 Zr1,171308,61,mp-776427,171117,61,mp-776404,0.0317,0.455,1.67,,
same SGs,Mn1 O2,117917,12,mp-644514,154166,12,mp-715581,0.00127,0.509,0.0474,,
same SGs,Mn1 O2,154142,166,mp-714874,87686,166,mp-25547,0.0205,1.58,0.0345,,
same SGs,Mn1 O2,87663,164,mp-25558,154114,164,mp-714873,0.00612,0.0913,0.749,,
same SGs,Cd1 I2,42113,-1,mp-669340,42097,-1,mp-680115,2.46e-06,0.0146,0.00974,,
same SGs,Cd1 I2,19863,156,mp-624399,42082,156,mp-570410,0.000841,0.0213,0.335,,
same SGs,B2 Fe1 Li2 Mn1 O6,160107,9,mp-773566,158640,9,mp-774078,0.000665,0.0171,0.023,,
diff. SGs,O2 Zr1,12828,29,mp-556605,158668,62,mp-754741,0.0628,0.0351,1.78,"(0.298,0.394)",different
diff. SGs,O2 Zr1,22154,225,mp-1565,3055,137,mp-2574,0.0338,0.75,0.375,"(0.0432,0.0529)",different
diff. SGs,Mn1 O2,84991,58,mp-33009,6598,136,mp-510408,0.0033,0.397,0.0634,"(0.0786,0.0962)",different
diff. SGs,O2,19027,12,mp-611836,14453,166,mp-610917,0.0104,0.0159,0.353,"(0.0383,0.0383)",different
diff. SGs,Cd1 I2,9019,156,mp-571539,19844,186,mp-570054,6.62e-05,0.0068,0.0598,"(0.285,0.654)",similar
same SGs,Fe1 O4 P1,166564,29,mp-767829,166579,29,mp-767830,0.000834,0.0324,0.126,,
same SGs,Cd1 I2,42082,156,mp-570410,42061,156,mp-669326,0.000723,0.0036,0.304,,
same SGs,Mn1 O7 P2,49530,2,mp-31943,49202,2,mp-697742,0.0197,1.57,0.0988,,
same SGs,Cd1 I2,19857,156,mp-570695,19850,156,mp-570671,0.000601,0.0305,0.588,,
diff. SGs,Fe1 O4 P1,1805,152,mp-19109,24870,181,mp-24973,0.0056,0.135,1.46,"(0.195,0.247)",different
diff. SGs,F5 Li1 V1,165657,62,mp-766925,165643,14,mp-766954,0.0539,1.79,0.27,"(0.17,0.366)",different
diff. SGs,H7 N1 O6,150889,1,mp-626112,151056,4,mp-626529,0.000146,0.089,0.011,"(0.0466,0.127)",similar
same SGs,Li3 O12 P3 V2,171188,9,mp-778305,49179,9,mp-705293,0.00659,0.0836,0.109,,
same SGs,F5 Li1 V1,164734,15,mp-764920,165019,15,mp-765781,0.0663,0.12,1.15,,
same SGs,H7 N1 O6,150875,19,mp-626066,150861,19,mp-626046,0.0132,0.205,0.144,,
same SGs,H7 N1 O6,150875,19,mp-626066,88659,19,mp-504422,0.0408,0.467,0.185,,
same SGs,H7 N1 O6,150861,19,mp-626046,88659,19,mp-504422,0.054,0.262,0.328,,
same SGs,H7 N1 O6,150797,4,mp-625850,150830,4,mp-625937,0.00102,0.21,0.429,,
diff. SGs,B1 N1,35216,136,mp-13151,35217,62,mp-644751,0.0933,0.996,0.545,"(0.272,0.413)",different
diff. SGs,H7 N1 O6,150802,4,mp-625868,150801,19,mp-625861,0.00335,0.195,0.52,"(0.157,0.399)",different
same SGs,H7 N1 O6,150885,19,mp-626093,88659,19,mp-504422,0.0384,0.08,0.179,,
same SGs,Li3 O12 P3 V2,85764,14,mp-643154,45924,14,mp-19615,0.00796,0.0943,0.0579,,
diff. SGs,Fe1 Li2 O4 Si1,163714,4,mp-763264,164997,33,mp-764346,0.0021,0.408,0.22,"(0.203,0.521)",different
diff. SGs,Fe1 Li2 O4 Si1,156722,20,mp-762566,156739,7,mp-763629,0.00577,0.0624,0.465,"(0.229,0.548)",similar
diff. SGs,Bi4 O11 V2,161375,4,mp-761473,165447,5,mp-767756,0.0209,0.259,0.532,"(0.19,0.531)",different
same SGs,Fe1 Li2 O4 Si1,164878,33,mp-764340,162615,33,mp-762557,0.0111,0.0109,0.0914,,
same SGs,O5 V2,159217,62,mp-775847,170987,62,mp-776882,0.00747,0.72,3.98,,
same SGs,Fe1 Li2 O4 Si1,163785,62,mp-764790,133853,62,mp-763645,0.00539,0.0317,0.162,,
same SGs,Cr1 Li1 O7 P2,172399,14,mp-850763,49637,14,mp-31648,0.0349,0.518,0.626,,
diff. SGs,Cu1 Mn2 O4,87166,8,mp-34237,51286,156,mp-705626,0.0166,0.0113,0.0707,"(0.0672,0.112)",different
same SGs,F1 O2 V1,171725,2,mp-779090,164668,2,mp-763951,0.000614,0.0353,0.0344,,
same SGs,F1 O2 V1,171725,2,mp-779090,156175,2,mp-765735,0.000111,0.0739,0.0553,,
same SGs,F1 O2 V1,164668,2,mp-763951,156175,2,mp-765735,0.000503,0.0386,0.0209,,
same SGs,B8 Fe1 Li8 Mn7 O24,172173,1,mp-780298,171981,1,mp-779202,0.000218,0.003,0.0312,,
same SGs,B8 Fe1 Li8 Mn7 O24,172247,1,mp-778916,172086,1,mp-778721,5.05e-05,0.0005,0.0314,,
same SGs,C1 Fe1 Na2 O7 P1,166646,14,mp-768094,166307,14,mp-768042,0.00117,0.0131,0.00227,,
same SGs,B8 Fe1 Li8 Mn7 O24,172326,1,mp-779173,169342,1,mp-774189,0.000136,0.0049,0.00741,,
same SGs,B8 Fe1 Li8 Mn7 O24,171964,1,mp-778763,169941,1,mp-775268,8.58e-05,0.0045,0.00413,,
same SGs,B8 Fe1 Li8 Mn7 O24,172300,1,mp-779873,171906,1,mp-779167,0.000229,0.001,0.00461,,
same SGs,B4 Fe1 Li4 Mn3 O12,160201,1,mp-774081,172543,1,mp-781603,0.000233,0.0084,0.00165,,
diff. SGs,C1 O4 Rb4,35547,5,mp-551176,35550,23,mp-550679,0.00341,1.46,0.0149,"(0.0973,0.149)",different
diff. SGs,C1 O4 Rb4,35549,146,mp-550314,35542,215,mp-546320,0.000233,0.111,0.383,"(0.134,0.205)",different
diff. SGs,C1 O4 Rb4,85513,81,mp-552966,35542,215,mp-546320,0.00348,0.948,3.24,"(0.17,0.226)",different
diff. SGs,O2 Si1,14340,96,mp-7029,1875,92,mp-6945,0.000186,0.285,0.00382,"(0.124,0.15)",different
diff. SGs,Fe2 O3,48612,206,mp-686969,154939,5,mp-715572,0.0417,0.629,0.166,"(0.0634,0.0955)",different
same SGs,C2 Na5 Ni2 O14 P2,170477,11,mp-775738,166759,11,mp-768082,0.0018,0.0251,0.208,,
same SGs,C1 Na2 Ni1 O7 P1,170398,1,mp-775744,166720,1,mp-769504,0.000619,0,0.212,,
same SGs,O2 Si1,24631,60,mp-559741,4040,60,mp-10948,0.000197,0.0576,0.00455,,
same SGs,C1 Na2 Ni1 O7 P1,166782,1,mp-768070,166292,1,mp-768089,0.000482,0.0192,0.0892,,
same SGs,O5 P1 V1,155849,85,mp-763482,33450,85,mp-566179,0.00664,0.498,0.803,,
diff. SGs,Fe2 O3,44632,60,mp-542309,154929,33,mp-715276,0.044,0.0139,0.0917,"(0.0667,0.107)",different
diff. SGs,Li1 O5 P1 V1,49806,39,mp-32428,156693,7,mp-764047,0.0543,0.141,0.605,"(0.194,0.36)",different
diff. SGs,O5 P1 V1,155849,85,mp-763482,49282,129,mp-19000,0.00489,0.418,1.09,"(0.186,0.338)",different
diff. SGs,O5 P1 V1,49282,129,mp-19000,33450,85,mp-566179,0.00175,0.0791,0.288,"(0.092,0.117)",similar
same SGs,Li1 O7 P2 V1,162294,14,mp-763554,48712,14,mp-540028,0.0283,0.182,0.623,,
same SGs,F11 O1 V3,163561,1,mp-763320,173641,1,mp-850158,0.00022,0.126,0.101,,
same SGs,F19 O5 V6,165241,1,mp-764852,164579,1,mp-763953,0.000768,0.0174,0.0944,,
same SGs,C2 Mn2 Na3 O14 P2,169757,4,mp-775404,166487,4,mp-769540,1.34e-05,0.0403,0.0361,,
same SGs,F11 O1 V3,171423,1,mp-777223,171552,1,mp-778369,0.000105,0.0124,0.0353,,
same SGs,F11 O1 V3,164169,1,mp-764014,163839,1,mp-764053,0.000245,0.031,0.0253,,
same SGs,C2 Mn2 Na3 O14 P2,166732,2,mp-769520,166577,2,mp-769531,0.00368,0.068,0.11,,
same SGs,C2 Mn2 Na3 O14 P2,166855,2,mp-769482,168412,2,mp-775470,0.000213,0.0289,0.0926,,
same SGs,C1 Mn1 Na1 O7 P1,169749,14,mp-775400,166824,14,mp-768072,0.00172,0.0314,0.198,,
same SGs,Fe2 Li3 O12 P3,38036,14,mp-19570,37691,14,mp-31788,0.00102,0.198,0.147,,
same SGs,F9 O3 V4,163315,1,mp-765695,159111,1,mp-849543,0.000828,0.0304,0.0276,,
diff. SGs,Li2 Mn1 O7 P2,161439,74,mp-761564,161538,15,mp-761569,0.0245,0.216,0.441,"(0.206,0.474)",different
diff. SGs,Fe2 Li3 O12 P3,162838,1,mp-762728,49301,9,mp-705329,0.0218,0.105,0.145,"(0.263,0.656)",different
diff. SGs,Li1 O4 Ti2,155892,74,mp-760594,13292,227,mp-5670,0.0768,0.0309,0.122,"(0.298,0.751)",different
same SGs,Al1 H1 O2,150483,36,mp-625056,150477,36,mp-625054,1.14e-05,0.0973,0.0562,,
same SGs,Co1 Li2 O4 Si1,174279,33,mp-764641,163453,33,mp-763304,9.92e-05,0.0761,0.113,,
same SGs,Co1 Li2 O4 Si1,162478,62,mp-763309,162231,62,mp-763485,0.00802,0.148,0.241,,
same SGs,Co1 Li2 O4 Si1,162357,14,mp-763512,174193,14,mp-763470,0.00091,0.0578,0.146,,
same SGs,Co1 Li2 O4 Si1,162357,14,mp-763512,161505,14,mp-763465,0.0213,0.0854,0.0707,,
same SGs,Co1 Li2 O4 Si1,174193,14,mp-763470,161505,14,mp-763465,0.0204,0.143,0.0749,,
same SGs,Cr2 Li3 O12 P3,169588,14,mp-775597,48926,14,mp-540129,0.000261,0.0266,0.0631,,
same SGs,Cr2 Li3 O12 P3,85191,9,mp-31729,49239,9,mp-697753,0.00977,0.0529,0.0843,,
same SGs,F2 O1 V1,164608,1,mp-763926,171791,1,mp-776796,0.00127,0.0548,0.0629,,
same SGs,Ba1 O3 Ti1,34698,99,mp-12992,2045,99,mp-5986,3.46e-06,0.0036,0.0159,,
same SGs,C2 Na3 Ni2 O14 P2,166302,2,mp-769486,166881,2,mp-769496,0.0054,0.0174,0.0658,,
same SGs,B8 Fe7 Li8 Mn1 O24,171707,1,mp-778754,172259,1,mp-779381,0.000428,0.0285,0.0194,,
same SGs,B8 Fe7 Li8 Mn1 O24,172358,1,mp-850743,171529,1,mp-778862,0.000205,0.403,0.0212,,
same SGs,Co2 Li3 O8 Si2,174362,1,mp-764452,156485,1,mp-762851,0.00258,0.135,0.247,,
same SGs,Co2 Li3 O8 Si2,162882,7,mp-762812,162709,7,mp-762751,0.0019,0.0348,0.0674,,
same SGs,Fe1 Li2 O7 P2,156531,2,mp-761460,156576,2,mp-762485,0.00459,0.173,0.0302,,
same SGs,Li1 Mn1 O9 P3,162871,19,mp-762698,24457,19,mp-19492,0.00679,0.0256,0.0456,,
same SGs,F11 O1 V4,172694,1,mp-780304,164564,1,mp-766143,0.000215,0.0753,0.023,,
same SGs,F11 O1 V4,171457,2,mp-779347,165407,2,mp-766602,2.71e-06,0.0356,0.00642,,
same SGs,F11 O1 V4,165407,2,mp-766602,160240,2,mp-774050,0.000106,0.0185,0.0091,,
same SGs,Fe2 Li1 O8 P2,166604,29,mp-767832,166689,29,mp-767831,0.00203,0.0461,0.116,,
diff. SGs,Al1 H1 O2,151152,1,mp-626902,150483,36,mp-625056,0.00152,0.0023,0.0357,"(0.2,0.402)",similar
diff. SGs,Al1 H1 O2,151152,1,mp-626902,150477,36,mp-625054,0.00151,0.095,0.0919,"(0.214,0.421)",similar
diff. SGs,Al1 H1 O2,150483,36,mp-625056,150476,11,mp-625055,0.0488,0.477,0.238,"(0.168,0.303)",different
diff. SGs,Al1 H1 O2,150476,11,mp-625055,150477,36,mp-625054,0.0488,0.574,0.295,"(0.172,0.304)",different
diff. SGs,Co1 Li2 O4 Si1,162859,4,mp-764958,163163,12,mp-764634,0.0131,0.477,0.392,"(0.224,0.522)",different
diff. SGs,Co1 Li2 O4 Si1,162251,20,mp-764956,157307,7,mp-763301,0.00965,0.233,0.386,"(0.222,0.514)",different
diff. SGs,Si1,48629,148,mp-571520,6238,206,mp-168,0.00194,0.101,0.208,"(0.12,0.193)",different
diff. SGs,Ba1 O3 Ti1,14195,194,mp-5933,36117,20,mp-558125,0.00482,0.573,0.159,"(0.0271,0.0499)",different
diff. SGs,Ba1 O3 Ti1,34698,99,mp-12992,6069,160,mp-5020,0.00291,0.777,0.0355,"(0.211,0.284)",different
diff. SGs,Ba1 O3 Ti1,34698,99,mp-12992,7776,38,mp-5777,0.00249,0.561,0.036,"(0.212,0.288)",different
diff. SGs,Ba1 O3 Ti1,34698,99,mp-12992,1496,221,mp-2998,0.0112,0.0652,0.374,"(0.222,0.312)",different
diff. SGs,Ba1 O3 Ti1,6069,160,mp-5020,2045,99,mp-5986,0.00291,0.781,0.0514,"(0.0318,0.0542)",different
diff. SGs,Ba1 O3 Ti1,6069,160,mp-5020,7776,38,mp-5777,0.000424,0.216,0.000474,"(0.019,0.0324)",different
diff. SGs,Ba1 O3 Ti1,6069,160,mp-5020,1496,221,mp-2998,0.0141,0.842,0.41,"(0.0322,0.0546)",different
diff. SGs,Ba1 O3 Ti1,2045,99,mp-5986,7776,38,mp-5777,0.00248,0.565,0.0519,"(0.0223,0.0363)",different
diff. SGs,Ba1 O3 Ti1,2045,99,mp-5986,1496,221,mp-2998,0.0112,0.0616,0.359,"(0.0164,0.0315)",different
diff. SGs,Ba1 O3 Ti1,7776,38,mp-5777,1496,221,mp-2998,0.0137,0.627,0.41,"(0.0222,0.0368)",different
diff. SGs,C1 K4 O4,150388,8,mp-605843,5501,121,mp-549869,0.00816,0.12,0.0499,"(0.0728,0.106)",different
diff. SGs,C1 K4 O4,150388,8,mp-605843,5503,5,mp-551561,0.0143,0.346,0.517,"(0.0688,0.118)",different
diff. SGs,C1 K4 O4,5504,146,mp-545387,5499,215,mp-551736,0.00144,0.034,0.0844,"(0.122,0.187)",similar
diff. SGs,C1 K4 O4,5501,121,mp-549869,5503,5,mp-551561,0.00618,0.466,0.567,"(0.0949,0.123)",different
diff. SGs,Bi1 Fe1 O3,24132,221,mp-561388,85525,63,mp-566101,0.000541,0.179,0.0186,"(0.0113,0.0194)",different
diff. SGs,Bi1 Fe1 O3,24132,221,mp-561388,1593,160,mp-24942,0.182,1.33,1.26,"(0.07,0.131)",different
diff. SGs,Bi1 Fe1 O3,152054,146,mp-655631,85405,1,mp-561070,0.00387,0.0972,0.927,"(0.056,0.0662)",similar
diff. SGs,Bi1 Fe1 O3,87017,146,mp-601706,3280,161,mp-24932,0.162,0.361,0.629,"(0.0452,0.0667)",different
diff. SGs,Bi1 Fe1 O3,85525,63,mp-566101,1593,160,mp-24942,0.182,1.51,1.24,"(0.0699,0.133)",different
diff. SGs,Co1 O4 P1,49701,33,mp-689943,48869,14,mp-540093,0.0144,0.0766,1.7,"(0.238,0.591)",different
diff. SGs,Co1 Fe2 O4,153233,5,mp-691111,53159,152,mp-36738,0.0527,0.103,0.26,"(0.0229,0.0386)",different
diff. SGs,Br1 H9 O4,150717,1,mp-625653,150710,4,mp-625632,0.00102,0.0414,0.0992,"(0.295,0.623)",similar
diff. SGs,Fe1 Li2 O7 P2,159272,74,mp-850109,49580,15,mp-31809,0.0155,0.0155,0.448,"(0.209,0.471)",different
diff. SGs,Ag2 S1,85364,11,mp-556225,52796,63,mp-36216,0.00127,0.321,0.116,"(0.0438,0.0718)",different
diff. SGs,Ag2 S1,85364,11,mp-556225,50086,64,mp-32791,0.0824,1.28,1.48,"(0.245,0.337)",different
diff. SGs,Ag2 S1,85364,11,mp-556225,86073,12,mp-32884,0.000684,0.106,0.426,"(0.0416,0.0642)",different
diff. SGs,Ag2 S1,85364,11,mp-556225,87077,36,mp-32669,0.00166,0.11,0.266,"(0.0301,0.0417)",different
diff. SGs,Ag2 S1,52796,63,mp-36216,50086,64,mp-32791,0.0812,0.958,1.6,"(0.239,0.339)",different
diff. SGs,Ag2 S1,52796,63,mp-36216,86073,12,mp-32884,0.00196,0.215,0.31,"(0.0699,0.0978)",different
diff. SGs,Ag2 S1,52796,63,mp-36216,87077,36,mp-32669,0.00293,0.211,0.15,"(0.0579,0.0856)",different
diff. SGs,Ag2 S1,50086,64,mp-32791,86073,12,mp-32884,0.0831,1.17,1.91,"(0.246,0.331)",different
diff. SGs,Ag2 S1,50086,64,mp-32791,87077,36,mp-32669,0.0841,1.17,1.75,"(0.241,0.324)",different
diff. SGs,Ag2 S1,86073,12,mp-32884,87077,36,mp-32669,0.000975,0.0039,0.16,"(0.0302,0.057)",similar
diff. SGs,O5 Ta2,152906,1,mp-684897,173557,8,mp-780772,0.00854,0.0276,0.12,"(0.112,0.288)",similar
diff. SGs,Fe1 Mo1 O6 Sr2,34676,225,mp-19127,1008,87,mp-18857,0.0298,0,0.111,"(0.0316,0.0492)",different
diff. SGs,Co1 Li2 O7 P2,161765,74,mp-761655,161673,15,mp-761638,0.017,0.147,0.44,"(0.213,0.493)",different
diff. SGs,C1 Na4 O4,85498,146,mp-552941,5492,215,mp-551886,0.151,0.436,0.954,"(0.29,0.565)",different
diff. SGs,C1 Na4 O4,35537,8,mp-645295,35536,146,mp-552623,0.000108,0.439,0.437,"(0.0968,0.136)",different
diff. SGs,C1 Na4 O4,35536,146,mp-552623,5492,215,mp-551886,0.00106,0.24,0.0904,"(0.151,0.198)",different
diff. SGs,C1 Fe1 Li3 O7 P1,156939,4,mp-761318,88193,11,mp-25536,0.00243,0.0766,0.0569,"(0.157,0.418)",similar
diff. SGs,F11 O1 V4,173126,5,mp-781049,164401,1,mp-764187,0.000238,0.0351,0.0559,"(0.226,0.342)",similar
diff. SGs,F11 O1 V4,160716,5,mp-780016,156209,1,mp-764086,0.00767,1.06,0.0288,"(0.222,0.333)",different
diff. SGs,K1 N1 O3,87098,11,mp-36903,53032,1,mp-675625,0.00529,0.0846,0.639,"(0.16,0.289)",similar
diff. SGs,K1 N1 O3,54740,155,mp-676851,8152,160,mp-6920,0.00728,0.0967,1.77,"(0.228,0.254)",similar
diff. SGs,Fe2 Li1 O8 P2,157284,4,mp-767237,157579,7,mp-767221,0.00897,0.0134,0.197,"(0.275,0.701)",similar
diff. SGs,I2 Pb1,20611,186,mp-567542,18832,166,mp-574189,0.00147,0.0247,0.0962,"(0.287,0.601)",similar
diff. SGs,Cr2 Li1 O12 P3,85101,167,mp-31652,49240,9,mp-697757,0.0152,0.155,0.194,"(0.174,0.59)",different
diff. SGs,O2 Si1,39456,15,mp-562490,14341,46,mp-555251,0.00392,0.0358,0.34,"(0.215,0.425)",similar
same SGs,Cu1 Li2 O4 P1,162796,62,mp-758587,49495,62,mp-26695,0.00367,0.162,0.173,,
same SGs,N4 Si3,3414,159,mp-603694,9264,159,mp-2245,0.742,4.6,0.314,,
same SGs,B8 Fe3 Li8 Mn5 O24,171723,1,mp-780292,171986,1,mp-778894,0.000544,0.0024,0.0261,,
same SGs,B8 Fe3 Li8 Mn5 O24,172152,1,mp-779870,172078,1,mp-779268,0.000574,0.245,0.0276,,
same SGs,Li3 Mn2 O12 P3,169651,14,mp-773727,48890,14,mp-31958,0.00861,0.196,0.0787,,
same SGs,Bi1 F1 O1,164017,61,mp-760162,164060,61,mp-759870,0.0257,0.385,1.23,,
same SGs,Li2 Mn1 O4 Si1,173592,33,mp-780918,170343,33,mp-775454,0.000188,0.0848,0.118,,
same SGs,Li2 Mn1 O4 Si1,173572,62,mp-849238,163903,62,mp-763876,0.0099,0.328,0.159,,
same SGs,Bi1 Li1 O7 P2,163642,14,mp-759029,49401,14,mp-684489,0.0436,0.971,1.1,,
same SGs,H6 O6 Te1,150852,1,mp-626012,150822,1,mp-625993,0.0115,0.234,0.19,,
diff. SGs,H2 K1 O4 P1,88297,43,mp-23959,93816,122,mp-696752,0.00492,0.172,0.223,"(0.099,0.188)",different
diff. SGs,Co1 O7 P2,86818,2,mp-31552,49032,15,mp-585220,0.0247,0.56,1.31,"(0.0348,0.0648)",different
diff. SGs,Li2 Ni1 O7 P2,157532,74,mp-767975,156802,15,mp-765143,0.0142,0.132,0.574,"(0.207,0.478)",different
diff. SGs,P1,132670,-1,mp-604573,28242,221,mp-53,0.033,0.0741,0.0571,"(0,0)",different
diff. SGs,P1,23316,166,mp-130,84861,74,mp-7245,0.01,0,0.317,"(0.0766,0.0766)",similar
diff. SGs,Li2 Mn1 O4 Si1,173527,7,mp-849394,159865,20,mp-780833,0.00853,0.5,0.43,"(0.225,0.535)",different
diff. SGs,Nb1 S2,5535,187,mp-1874,13250,42,mp-2648,0.000454,0.0094,10.9,"(0.104,0.127)",similar
diff. SGs,Li1 O12 P3 V2,49737,167,mp-32419,49180,9,mp-697749,0.0129,0.113,0.308,"(0.17,0.582)",different
diff. SGs,Ca1 O3 Si1,36167,204,mp-4356,36166,139,mp-4853,0.000531,0.0191,0.00617,,similar
diff. SGs,Ca1 O3 Si1,36163,140,mp-3387,36164,74,mp-5096,0.000168,0.0215,0.00414,"(0.0542,0.0854)",similar
diff. SGs,H6 O6 Te1,150852,1,mp-626012,150831,42,mp-625941,0.042,0.297,0.536,"(0.27,0.66)",different
diff. SGs,H6 O6 Te1,150852,1,mp-626012,150824,87,mp-625950,0.142,0.635,0.314,"(0.238,0.542)",different
diff. SGs,H6 O6 Te1,150831,42,mp-625941,150824,87,mp-625950,0.0999,0.339,0.849,"(0.29,0.611)",different
diff. SGs,H6 O6 Te1,150824,87,mp-625950,150822,1,mp-625993,0.13,0.401,0.504,"(0.185,0.405)",different
diff. SGs,Li3 O12 P3 Ti2,162202,5,mp-758393,161954,15,mp-757671,0.0279,0.143,0.101,"(0.245,0.726)",different
diff. SGs,Na1 Nb1 O3,9139,29,mp-558920,36148,57,mp-3671,0.000142,0.0479,0.0368,"(0.0913,0.153)",similar
diff. SGs,Na1 Nb1 O3,9147,26,mp-4681,19754,63,mp-4748,0.0107,0.683,0.189,"(0.0841,0.149)",different
diff. SGs,O3 Pb1 Zr1,36537,32,mp-647557,16843,55,mp-542903,0.00519,0.071,0.295,"(0.104,0.27)",similar
diff. SGs,F4 V1,174238,7,mp-765233,156718,55,mp-764923,0.00353,0.0063,0.147,"(0.265,0.443)",similar
same SGs,Fe2 Li3 O8 Si2,162742,4,mp-762723,162736,4,mp-762650,0.00343,0.0729,0.329,,
same SGs,Ba1 H2 O2,99091,14,mp-626973,151175,14,mp-627016,0.00572,0.135,0.0764,,
same SGs,Ba1 H2 O2,99091,14,mp-626973,151170,14,mp-626994,0.0244,0.296,0.339,,
same SGs,Ba1 H2 O2,99091,14,mp-626973,151095,14,mp-626725,0.0241,0.0655,0.0754,,
same SGs,Ba1 H2 O2,151175,14,mp-627016,151095,14,mp-626725,0.0184,0.0695,0.00103,,
same SGs,Ba1 H2 O2,151175,14,mp-627016,151169,14,mp-627023,0.0317,0.0337,0.257,,
diff. SGs,Fe2 Li3 O8 Si2,174352,1,mp-764102,162792,4,mp-762786,0.0277,0.447,0.044,"(0.217,0.541)",different
diff. SGs,Ba1 H2 O2,151185,1,mp-627077,151169,14,mp-627023,0.0028,0.331,0.000209,"(0.184,0.524)",different