category,composition,snlgroup_id 1,sg_num 1,task_id 1,snlgroup_id 2,sg_num 2,task_id 2,delta_energy,delta_bandgap,delta_volume_per_atom,rms_dist,scenario
diff. SGs,H4 O5 S1,151016,7,mp-626448,150878,14,mp-626109,0.000208,0.0776,0.108,"(0.129,0.293)",similar
diff. SGs,H4 O5 S1,151016,7,mp-626448,88166,14,mp-29095,0.00331,0.0046,0.233,"(0.0561,0.117)",similar
diff. SGs,Ni1 Ti1,2776,157,mp-597,2272,147,mp-2716,0.00361,0.0045,0.0028,"(0.0614,0.157)",similar
diff. SGs,Ba1 H2 O2,99159,62,mp-723021,111604,14,mp-699501,0.0123,0.487,0.447,"(0.122,0.296)",different
diff. SGs,Cu1 Li2 O4 Si1,162381,7,mp-758498,156620,20,mp-752888,0.0117,0,0.483,"(0.23,0.516)",different
diff. SGs,Fe1 O2,88734,227,mp-632573,154919,141,mp-714904,0.171,0.0886,0.964,"(0.0172,0.0211)",different
same SGs,H4 O5 S1,150878,14,mp-626109,88166,14,mp-29095,0.0031,0.073,0.125,,
same SGs,Cu1 Li2 O4 Si1,162549,33,mp-758743,162638,33,mp-758435,0.00586,0.0871,0.124,,
same SGs,Cu1 Li2 O4 Si1,162570,62,mp-758311,162579,62,mp-758758,0.0106,0.158,0.167,,
same SGs,Fe1 O2,87790,166,mp-25519,154136,166,mp-715160,0.00216,0,0.502,,
same SGs,H1 Na1 O1,150493,160,mp-625052,150494,160,mp-625051,0,0,0,,
same SGs,S1 Zn1,42078,156,mp-557175,42073,156,mp-556448,0.000292,0.0089,0.00281,,
diff. SGs,U1,42248,136,mp-93,26208,102,mp-43,0.0105,0.0069,0.106,"(0.0757,0.0885)",different
diff. SGs,Ta1,44501,136,mp-569794,22312,113,mp-42,0.000815,0.0154,0.00179,"(0.0261,0.0496)",similar
diff. SGs,H1 Na1 O1,150841,4,mp-626000,88472,63,mp-23891,0.00091,0.186,0.142,"(0.206,0.308)",different
diff. SGs,H1 Na1 O1,150841,4,mp-626000,87939,11,mp-23940,0.00187,0.165,0.165,"(0.208,0.306)",different
diff. SGs,H1 Na1 O1,88472,63,mp-23891,87939,11,mp-23940,0.000956,0.0208,0.0228,"(0.0372,0.0498)",similar
diff. SGs,N2,14978,198,mp-154,1786,205,mp-25,0.000191,0.0099,0.213,"(0.0602,0.0641)",similar
diff. SGs,Fe1 O1,7462,225,mp-18905,84557,139,mp-715262,0.414,0,0.639,"(2.22e-16,2.22e-16)",different
same SGs,H2 O2 Zn1,150490,1,mp-625230,150496,1,mp-625272,0.00458,0.0731,0.131,,
same SGs,H2 O2 Zn1,150490,1,mp-625230,150495,1,mp-625279,0.00383,0.0147,0.0248,,
diff. SGs,H2 O2 Zn1,153763,19,mp-697146,150799,4,mp-625857,0.0132,0.136,0.152,"(0.246,0.375)",different
diff. SGs,H2 O2 Zn1,150650,5,mp-625488,150649,164,mp-625487,0.0164,0.0689,0.21,"(0.191,0.267)",different
diff. SGs,H2 O2 Zn1,150799,4,mp-625857,97351,19,mp-625830,0.00178,0.0248,0.0699,"(0.0769,0.141)",similar
diff. SGs,F5 O7 V4,163822,5,mp-764106,156361,1,mp-764254,0.0201,1.13,0.587,"(0.214,0.326)",different
same SGs,Li2 Ni1 O4 Si1,166715,29,mp-767899,166123,29,mp-767651,0.0197,0.0114,0.612,,
same SGs,Li2 Ni1 O4 Si1,166835,62,mp-767896,167128,62,mp-767851,0.00403,0.131,0.292,,
same SGs,H5 I1 O6,150569,4,mp-625274,150783,4,mp-625890,0.00418,0.247,0.239,,
same SGs,H5 I1 O6,88383,14,mp-27773,150521,14,mp-625174,0.00573,0.118,0.1,,
same SGs,H5 I1 O6,88383,14,mp-27773,150522,14,mp-625188,0.013,0.101,0.125,,
same SGs,H5 I1 O6,150521,14,mp-625174,150522,14,mp-625188,0.00724,0.017,0.0247,,
diff. SGs,H5 I1 O6,150853,1,mp-626014,150569,4,mp-625274,0.0144,0.901,0.0856,"(0.185,0.644)",different
diff. SGs,H5 I1 O6,150569,4,mp-625274,88383,14,mp-27773,0.0334,0.505,0.15,"(0.261,0.56)",different
diff. SGs,H5 I1 O6,150569,4,mp-625274,150521,14,mp-625174,0.0276,0.387,0.0496,"(0.173,0.378)",different
diff. SGs,H5 I1 O6,150569,4,mp-625274,150838,1,mp-625961,0.0156,0.226,0.242,"(0.274,0.614)",different
diff. SGs,H5 I1 O6,150569,4,mp-625274,150522,14,mp-625188,0.0204,0.404,0.0249,"(0.208,0.622)",different
diff. SGs,Li2 Ni1 O4 Si1,166842,7,mp-767915,174035,4,mp-767302,0.0112,0.105,0.388,"(0.214,0.507)",different
diff. SGs,Ag3 I1 S1,151500,1,mp-632480,17235,221,mp-558189,0.0414,0.352,0.503,"(0.159,0.249)",different
diff. SGs,Ag3 I1 S1,151500,1,mp-632480,51053,6,mp-674981,0.00215,0.0085,0.11,"(0.118,0.174)",similar
diff. SGs,Ag3 I1 S1,151500,1,mp-632480,54299,155,mp-676561,0.00263,0.0728,0.332,"(0.165,0.297)",similar
diff. SGs,Ag3 I1 S1,151500,1,mp-632480,3612,146,mp-22995,0.00855,0.803,0.27,"(0.102,0.149)",different
diff. SGs,Ag3 I1 S1,17235,221,mp-558189,51053,6,mp-674981,0.0393,0.36,0.393,"(0.166,0.227)",different
diff. SGs,Ag3 I1 S1,17235,221,mp-558189,54299,155,mp-676561,0.0388,0.279,0.17,"(0.234,0.302)",different
diff. SGs,Ag3 I1 S1,17235,221,mp-558189,3612,146,mp-22995,0.0499,0.451,0.773,"(0.161,0.198)",different
diff. SGs,Ag3 I1 S1,51053,6,mp-674981,54299,155,mp-676561,0.000486,0.0813,0.223,"(0.16,0.219)",similar
diff. SGs,Ag3 I1 S1,51053,6,mp-674981,3612,146,mp-22995,0.0107,0.812,0.38,"(0.126,0.244)",different
diff. SGs,Ag3 I1 S1,54299,155,mp-676561,3612,146,mp-22995,0.0112,0.731,0.603,"(0.136,0.163)",different
diff. SGs,H5 I1 O6,88383,14,mp-27773,150568,7,mp-625256,0.0167,0.151,0.0285,"(0.122,0.401)",different
diff. SGs,H5 I1 O6,88383,14,mp-27773,150783,4,mp-625890,0.0292,0.752,0.388,"(0.152,0.523)",different
diff. SGs,H5 I1 O6,150568,7,mp-625256,150521,14,mp-625174,0.011,0.0336,0.0716,"(0.246,0.745)",different
diff. SGs,H5 I1 O6,150568,7,mp-625256,150838,1,mp-625961,0.00109,0.127,0.121,"(0.169,0.53)",different
diff. SGs,H5 I1 O6,150568,7,mp-625256,150522,14,mp-625188,0.00374,0.0506,0.0962,"(0.259,0.745)",similar
diff. SGs,H5 I1 O6,150568,7,mp-625256,150783,4,mp-625890,0.0125,0.601,0.36,"(0.203,0.54)",different
diff. SGs,H5 I1 O6,150521,14,mp-625174,150838,1,mp-625961,0.0121,0.161,0.193,"(0.221,0.661)",different
diff. SGs,H5 I1 O6,150521,14,mp-625174,150783,4,mp-625890,0.0235,0.634,0.288,"(0.214,0.55)",different
diff. SGs,H5 I1 O6,150838,1,mp-625961,150522,14,mp-625188,0.00483,0.178,0.217,"(0.246,0.661)",different
diff. SGs,H5 I1 O6,150838,1,mp-625961,150783,4,mp-625890,0.0114,0.473,0.481,"(0.232,0.644)",different
diff. SGs,H5 I1 O6,150522,14,mp-625188,150783,4,mp-625890,0.0162,0.651,0.263,"(0.222,0.618)",different
diff. SGs,Se2 Ta1,29740,187,mp-637232,31485,186,mp-7926,0.00099,0.0252,1.01,"(0.207,0.654)",similar
diff. SGs,Se2 Ta1,29740,187,mp-637232,17922,194,mp-501,0.00705,0.0252,0.0806,"(0.259,0.343)",similar
diff. SGs,Se2 Ta1,31485,186,mp-7926,17922,194,mp-501,0.00804,0,0.931,"(0.261,0.335)",similar
same SGs,B1 H6 N1,3572,31,mp-569187,51938,31,mp-35082,0.000759,0.0408,0.266,,
same SGs,Ni1 O2,154138,164,mp-715324,88603,164,mp-543096,0.000792,0.0704,0.157,,
same SGs,Ni1 O2,154140,166,mp-715436,52584,166,mp-35925,0.00211,0.0288,0.598,,
same SGs,Nb1 Se2,105229,187,mp-643063,47597,187,mp-571270,0.00219,0,0.0863,,
same SGs,Nb1 Se2,105229,187,mp-643063,46740,187,mp-672271,0.365,0.0099,1.87,,
same SGs,Cr1 O4 P1,157283,2,mp-767021,49555,2,mp-540393,0.0574,0.181,0.56,,
same SGs,Nb1 Se2,47597,187,mp-571270,46740,187,mp-672271,0.367,0.0099,1.78,,
same SGs,B1 Fe1 Li2 O4,156870,62,mp-761286,167248,62,mp-771069,0.0301,0.0303,0.198,,
same SGs,C2 Co1 Li2 O6,163835,14,mp-763828,163475,14,mp-765029,0.00955,0.132,0.396,,
same SGs,C2 Co1 Li2 O6,164063,4,mp-765126,163829,4,mp-765128,0.00563,0.0269,0.152,,
same SGs,C2 Co1 Li2 O6,174043,43,mp-767175,156867,43,mp-765138,0.0553,0.762,0.416,,
same SGs,Ba1 H16 O10,150972,1,mp-626297,150971,1,mp-626295,0.00942,0.138,0.298,,
diff. SGs,O3 Ru1 Sr1,87150,74,mp-34212,19590,140,mp-4525,0.00609,0.0351,0.0112,"(0.0877,0.134)",similar
diff. SGs,Nb1 Se2,15974,194,mp-2207,15979,63,mp-618883,0.00435,0,1.25,"(0.0237,0.0297)",similar
diff. SGs,C1 Cs4 O4,5509,215,mp-605824,35561,146,mp-562815,0.0032,0.141,0.177,"(0.137,0.218)",different
diff. SGs,Mo1 O2,154918,12,mp-714883,88282,166,mp-25571,0.0293,0.0278,0.146,"(0.0111,0.0136)",different
diff. SGs,Ag1 I1,152849,119,mp-684580,4105,216,mp-22925,0.0017,0.0532,0.0279,"(1.49e-16,1.49e-16)",similar
diff. SGs,Mo1 O2,28921,136,mp-510536,154935,58,mp-715550,0.0131,0,0.03,"(0.0225,0.0277)",different
diff. SGs,Mo1 O2,87811,227,mp-25578,154933,2,mp-715482,0.0189,0.232,0.52,"(0.0465,0.0727)",different
diff. SGs,Mo1 O2,87811,227,mp-25578,151680,70,mp-635966,0.00508,0.114,0.423,"(0.0426,0.0541)",different
diff. SGs,Mo1 O2,87811,227,mp-25578,154925,141,mp-714969,0.0136,0.126,0.388,"(0.0369,0.0452)",different
diff. SGs,Mo1 O2,154933,2,mp-715482,151680,70,mp-635966,0.0138,0.346,0.0967,"(0.0349,0.0576)",different
diff. SGs,Mo1 O2,154933,2,mp-715482,154925,141,mp-714969,0.0325,0.358,0.131,"(0.0333,0.0525)",different
diff. SGs,Mo1 O2,151680,70,mp-635966,154925,141,mp-714969,0.0187,0.0121,0.0348,"(0.0141,0.0212)",different
diff. SGs,Al1 Li1 O4 Si1,37278,180,mp-14399,20951,181,mp-6326,2.12e-06,0.0009,0.00207,"(0.00825,0.0152)",similar
diff. SGs,B1 Fe1 Li2 O4,167245,7,mp-771068,157690,20,mp-769696,0.0079,0.0524,0.239,"(0.227,0.597)",similar
diff. SGs,C2 Co1 Li2 O6,163835,14,mp-763828,164063,4,mp-765126,0.0186,0.0195,0.254,"(0.212,0.648)",different
diff. SGs,C2 Co1 Li2 O6,165869,1,mp-767053,174425,7,mp-767036,0.00165,0.0846,0.244,"(0.146,0.595)",similar
diff. SGs,O3 V2,5700,167,mp-18937,25494,15,mp-715514,0.0015,0.0865,0.0198,"(0.0285,0.0323)",similar
diff. SGs,O3 V2,85484,9,mp-553955,26262,167,mp-714906,0.0439,0.0029,1.92,"(0.0594,0.0897)",different
diff. SGs,Ba1 H16 O10,150972,1,mp-626297,150945,7,mp-626264,0.00343,0.144,0.208,"(0.244,0.851)",different
diff. SGs,Cd1 O3 Ti1,85236,26,mp-20940,40601,33,mp-5052,0.000608,0.0308,0.0306,"(0.115,0.208)",similar
diff. SGs,Cd1 O3 Ti1,85236,26,mp-20940,37894,62,mp-14550,0.00414,0.337,0.103,"(0.0307,0.05)",different
diff. SGs,Cd1 O3 Ti1,40601,33,mp-5052,37894,62,mp-14550,0.00353,0.306,0.134,"(0.113,0.167)",different
diff. SGs,Ba1 H16 O10,150945,7,mp-626264,150971,1,mp-626295,0.0128,0.281,0.0905,"(0.216,0.777)",different
diff. SGs,Ba1 H16 O10,150947,15,mp-626268,150950,7,mp-626263,0.000425,0.0687,0.0091,"(0.137,0.444)",similar
diff. SGs,O3 U1,84780,65,mp-233,7836,164,mp-8134,0.0828,1.17,0.791,"(0.207,0.293)",different
diff. SGs,N1 S1,15714,14,mp-542738,43893,60,mp-555136,0.00187,0.0299,0.32,"(0.104,0.152)",similar
same SGs,Fe2 Li1 O12 P3,49502,2,mp-540371,48903,2,mp-540117,0.000929,0.0021,0.116,,
same SGs,Cu1 O2,154129,69,mp-704690,1060,69,mp-600604,0.00942,0.233,1.35,,
same SGs,Cu1 O2,154118,166,mp-703914,88067,166,mp-25378,0.000698,0,0.033,,
same SGs,Cu1 O2,154143,69,mp-704672,21119,69,mp-614565,0.00348,0.0749,1.18,,
diff. SGs,Fe2 Li1 O12 P3,49390,167,mp-31845,49302,9,mp-697784,0.00907,0.0141,0.326,"(0.166,0.563)",similar
same SGs,Li2 O8 P2 V1,155922,14,mp-762897,49236,14,mp-540259,0.0103,0.112,0.339,,
diff. SGs,Br2 Ca3 Si1,21622,160,mp-570142,21625,8,mp-568752,0.103,0.0753,3.64,"(0.27,0.585)",different
diff. SGs,Br2 Ca3 Si1,21622,160,mp-570142,21626,8,mp-568791,0.0971,0,4.13,"(0.298,0.655)",different
diff. SGs,Li1 Mn4 O12 P3,173730,62,mp-849480,49830,58,mp-504397,0.0126,0.469,0.22,"(0.289,0.847)",different
same SGs,Al1 H2 Li1 O5 Si1,95907,33,mp-697020,100315,33,mp-699426,0.000976,0.0321,0.121,,
same SGs,Al1 H2 Li1 O5 Si1,129032,33,mp-604430,152044,33,mp-655057,0.289,1.64,0.538,,
same SGs,Mo1 O3,152968,7,mp-705538,154271,7,mp-715474,0.331,0.0146,0.988,,
same SGs,Ca3 O5 Si1,85265,160,mp-554141,36390,160,mp-27917,0.00126,0.383,0.37,,
same SGs,Ca3 O5 Si1,85265,160,mp-554141,36386,160,mp-558273,0.0106,0.0342,0.206,,
same SGs,Al1 Fe1 Li2 O4,168185,14,mp-770698,168239,14,mp-770702,0.00891,0.589,0.376,,
same SGs,H1 O3 V1,150550,4,mp-625285,150547,4,mp-625295,0.00135,0.0425,0.392,,
same SGs,H9 Na1 O5,150665,1,mp-625501,150594,1,mp-626165,0.0209,0.495,0.16,,
same SGs,Cl1 H3 O5,150544,62,mp-625164,150888,62,mp-626136,0.0194,0.401,0.0855,,
same SGs,Cl1 H3 O5,150544,62,mp-625164,150528,62,mp-625148,0.00847,0.111,1.36,,
same SGs,Cl1 H3 O5,150532,62,mp-625159,150528,62,mp-625148,0.00188,0.155,0.0513,,
same SGs,Cl1 H3 O5,150888,62,mp-626136,150528,62,mp-625148,0.011,0.29,1.27,,
diff. SGs,H4 Mo1 O5,150736,1,mp-625751,150734,7,mp-625735,0.0167,0.274,0.158,"(0.157,0.348)",different
diff. SGs,Ba1 Mn1 O3,21678,185,mp-19267,11354,194,mp-19156,0.0077,0.143,0.239,"(0.0378,0.0597)",different
diff. SGs,S2 Ta1,159198,166,mp-755523,43476,160,mp-16226,0.0209,0,0.611,"(0.267,0.596)",different
diff. SGs,Al1 Fe1 Li2 O4,168236,7,mp-772267,160101,20,mp-770411,0.0063,0.0115,0.421,"(0.212,0.407)",similar
diff. SGs,Cd1 Te1,1077,186,mp-12779,86988,36,mp-685146,0.00113,0.0036,0.0754,"(0.119,0.126)",similar
diff. SGs,O2 Te1,10710,96,mp-2739,9176,19,mp-561224,0.00163,0.181,0.0417,"(0.0758,0.0896)",different
diff. SGs,O2 Te1,10710,96,mp-2739,826,92,mp-557,2.25e-05,0,0.0153,"(0.0127,0.0153)",similar
diff. SGs,O2 Te1,9176,19,mp-561224,826,92,mp-557,0.00161,0.181,0.0571,"(0.0756,0.0885)",different
diff. SGs,Ag1 F4 Li1,174394,15,mp-765559,163104,140,mp-752768,0.0352,0.27,0.775,"(0.22,0.334)",different
diff. SGs,Ba1 Cl5 La1,168319,4,mp-770427,168410,62,mp-770125,0.0131,0.0998,1.87,"(0.251,0.39)",different
diff. SGs,H1 O3 V1,150632,1,mp-625457,150572,4,mp-625340,0.0241,0.0352,0.923,"(0.269,0.869)",different
diff. SGs,H1 O3 V1,150632,1,mp-625457,150547,4,mp-625295,5.81e-05,0.0174,0.142,"(0.244,0.81)",similar
diff. SGs,Mn2 Ni1 O4,150457,141,mp-622693,17675,227,mp-32011,0.125,0,0.247,"(0.0264,0.0421)",different
diff. SGs,La1 Mn1 O3,873,15,mp-19157,786,167,mp-19168,0.00153,0.0135,0.0346,"(0.0543,0.0755)",similar
diff. SGs,H9 Na1 O5,150665,1,mp-625501,150597,5,mp-625378,0.0314,0.362,0.39,"(0.292,0.867)",different
diff. SGs,Cu1 Ge1 O3,86705,64,mp-561216,11359,51,mp-21344,0.00377,0.111,0.121,"(0.0469,0.0666)",different
diff. SGs,Fe4 Li1 O12 P3,162688,9,mp-762896,48688,15,mp-540020,0.0799,1.01,0.554,"(0.142,0.568)",different
diff. SGs,Cl1 H3 O5,150548,33,mp-625175,150532,62,mp-625159,0.0487,0.516,0.897,"(0.222,0.382)",different
diff. SGs,Cl1 H3 O5,150548,33,mp-625175,150528,62,mp-625148,0.0468,0.361,0.845,"(0.293,0.523)",different
diff. SGs,Cl1 H3 O5,150548,33,mp-625175,150530,6,mp-625172,0.0457,0.611,0.582,"(0.277,0.524)",different
diff. SGs,Te1,84733,51,mp-105,84711,221,mp-10654,0.00183,0,0.125,,similar
diff. SGs,Te1,47759,154,mp-567313,85687,12,mp-570459,0.0408,0.494,1.96,"(0.0829,0.1)",different
diff. SGs,Te1,47759,154,mp-567313,4141,152,mp-19,7.27e-05,0.0145,0.181,"(0.00967,0.00967)",similar
diff. SGs,Te1,85687,12,mp-570459,4141,152,mp-19,0.0409,0.479,2.14,"(0.0916,0.109)",different
diff. SGs,Cl1 H3 O5,150544,62,mp-625164,150530,6,mp-625172,0.00735,0.361,1.09,"(0.22,0.685)",different
diff. SGs,Cl1 H3 O5,150532,62,mp-625159,150530,6,mp-625172,0.00301,0.0944,0.315,"(0.249,0.648)",similar
diff. SGs,Cl1 H3 O5,150528,62,mp-625148,150530,6,mp-625172,0.00112,0.25,0.263,"(0.144,0.647)",different
diff. SGs,H2 O4 P1 Rb1,87983,43,mp-23667,102869,122,mp-642831,0.00602,0.171,0.366,"(0.0612,0.116)",different
diff. SGs,O4 Pb1 W1,152138,1,mp-703260,2413,88,mp-25176,0.00362,0.0586,0.072,"(0.0646,0.0988)",similar
diff. SGs,Ca1,84719,139,mp-166,19451,229,mp-21,0.000253,0.0064,0.0448,"(0,0)",similar
same SGs,Fe1 Li1 O9 P3,162835,19,mp-762641,24644,19,mp-540112,0.00226,0.008,0.0836,,
same SGs,Li3 Mn3 O16 P4,84913,4,mp-32017,48678,4,mp-704962,0.00952,0.489,0.141,,
diff. SGs,C1 Li2 Mn1 O7 P1,160597,2,mp-769717,87832,11,mp-25563,0.000416,0.194,0.193,"(0.142,0.297)",different
diff. SGs,Cu3 O8 Pb2 Sr2 Y1,39251,2,mp-554200,39247,26,mp-578628,0.0188,0.0102,0.392,"(0.0971,0.38)",different
diff. SGs,Cu3 O8 Pb2 Sr2 Y1,39251,2,mp-554200,101895,17,mp-643629,0.00344,0.0714,0.639,"(0.0586,0.25)",similar
diff. SGs,Cu3 O8 Pb2 Sr2 Y1,39247,26,mp-578628,101895,17,mp-643629,0.0223,0.0612,1.03,"(0.0764,0.286)",different
diff. SGs,Fe1 S1,12802,186,mp-616476,9180,62,mp-21410,0.0317,0.0219,1.19,,different
diff. SGs,Fe1 S1,12802,186,mp-616476,174872,164,mp-849057,0.078,0,0.313,,different
diff. SGs,Fe1 S1,12802,186,mp-616476,7482,194,mp-2099,0.0577,0,1.23,,different
diff. SGs,Fe1 S1,9180,62,mp-21410,174872,164,mp-849057,0.0462,0.0219,0.874,,different
diff. SGs,Fe1 S1,9180,62,mp-21410,7482,194,mp-2099,0.0259,0.0219,2.42,,different
diff. SGs,Fe1 S1,174872,164,mp-849057,7482,194,mp-2099,0.0203,0,1.54,"(0.0241,0.0341)",different
diff. SGs,Ge1 Te1,23507,225,mp-2612,3629,160,mp-938,0.016,0.384,1.02,"(0.0457,0.0457)",different
diff. SGs,Li1 Nb1 O3,43010,167,mp-552588,96,161,mp-3731,0.0335,1.01,0.0175,"(0.124,0.224)",different
same SGs,B8 Li7 Mn8 O24,172223,1,mp-779356,171385,1,mp-779313,0.000111,0.0563,0.00481,,
same SGs,B8 Li7 Mn8 O24,172613,1,mp-781628,171520,1,mp-777671,9.57e-05,0.133,0.0277,,
same SGs,B8 Li7 Mn8 O24,172433,1,mp-850775,171785,1,mp-779028,0.000603,0.0422,0.0714,,
diff. SGs,Ge1 O2,28466,154,mp-223,14658,152,mp-733,7.39e-05,0.0008,0.0256,"(0.000874,0.00107)",similar
diff. SGs,Ba1 Ca2 I6,157199,14,mp-753716,157412,7,mp-753460,0.0467,0.425,1.62,"(0.292,0.411)",different
same SGs,C2 Fe2 Li3 Na3 O14 P2,169199,1,mp-776731,169188,1,mp-773524,0.00399,0.254,0.000371,,
diff. SGs,F7 Li1 Mn2,163702,14,mp-763085,164061,4,mp-765204,0.0131,0.335,0.221,"(0.185,0.382)",different
diff. SGs,C2 Li1 O6 V1,155842,148,mp-762019,155763,155,mp-763059,0.133,2,0.528,"(0.297,0.541)",different
diff. SGs,Hf1 O3 Sr1,35057,74,mp-13109,35058,140,mp-3721,0.00338,0.0685,0.00322,"(0.0952,0.15)",similar
diff. SGs,Hf1 O3 Sr1,35056,63,mp-4673,16167,62,mp-3378,0.00445,0.213,0.0279,"(0.112,0.194)",different
diff. SGs,Cl4 Cr1 Rb2,11130,139,mp-570910,152535,12,mp-676398,0.00027,0.293,0.346,"(0.0277,0.046)",different
diff. SGs,Hf1 O3 Sr1,4115,99,mp-13108,3531,221,mp-4551,5.33e-05,0.0035,0.0169,"(0.0459,0.0794)",similar
diff. SGs,Li1 Mn2 O12 P3,49630,15,mp-32016,49439,9,mp-697792,0.0123,0.105,0.236,"(0.173,0.534)",different
same SGs,Ni1 O9 P3,166902,19,mp-767813,48855,19,mp-504166,0.00253,1.05,0.0691,,
diff. SGs,H2 Ni1 O2,151133,166,mp-626794,151131,5,mp-626843,0.00966,0.0426,0.00766,"(0.121,0.168)",similar
diff. SGs,H2 Ni1 O2,88411,164,mp-32403,150481,5,mp-625081,0.0112,0.0555,0.0206,"(0.183,0.26)",different
diff. SGs,O2 Sn1,24216,58,mp-550172,3006,136,mp-856,0.0023,0.154,0.0362,"(0.0573,0.0702)",different
same SGs,Li1 O12 P3 Sn2,163539,2,mp-759384,172902,2,mp-780235,0.0117,0.0499,0.136,,
same SGs,Li1 O12 P3 Sn2,172902,2,mp-780235,40241,2,mp-554917,0.0144,0.0196,0.139,,
same SGs,C2 Li3 Mn2 Na3 O14 P2,169242,1,mp-773530,169179,1,mp-773403,0.00362,0.0378,0.0803,,
same SGs,H2 O4 U1,151147,64,mp-626876,90010,64,mp-626864,0.128,0.136,0.312,,
same SGs,H2 O4 U1,150488,61,mp-625087,88509,61,mp-510128,0.0887,0.585,1.05,,
diff. SGs,H2 O4 U1,151153,36,mp-626885,151147,64,mp-626876,0.125,0.0871,0.357,"(0.209,0.418)",different
diff. SGs,H2 O4 U1,151153,36,mp-626885,90010,64,mp-626864,0.00324,0.223,0.0454,"(0.0655,0.132)",different
diff. SGs,N3 Na1,8174,166,mp-22003,2315,12,mp-570538,0.00183,0.082,0.0403,"(0.0296,0.0419)",similar
same SGs,Hf1 O2,170894,61,mp-775757,12977,61,mp-1858,0.0146,0.211,0.448,,
same SGs,Al6 Na8 O28 S1 Si6,87276,195,mp-41734,57233,195,mp-42160,0.0133,0.298,0.43,,
same SGs,F2 N1 P1,85592,14,mp-31489,36531,14,mp-555292,0.00303,0.0899,1.34,,
diff. SGs,Co1 La1 O3,86868,2,mp-561922,2778,167,mp-19051,0.0185,0.0367,0.27,"(0.0412,0.0644)",different
diff. SGs,F4 Li2 O1 V1,167294,63,mp-780857,164737,36,mp-764695,0.0094,0.0296,0.232,"(0.29,0.521)",similar
same SGs,Li3 Mn2 O8 Si2,172195,4,mp-780287,166341,4,mp-769538,0.00397,0.0986,0.413,,
same SGs,Li3 Mn2 O8 Si2,169348,7,mp-774356,169328,7,mp-774171,0.00365,0.0219,0.0733,,
same SGs,H1 O2 Sc1,150715,62,mp-625678,150713,62,mp-625663,0.00592,0.0057,0.141,,
same SGs,H2 O7 Ti3,151053,8,mp-626557,151050,8,mp-626550,0.00271,0.0332,0.0315,,
same SGs,H8 O6 Pt1,150558,1,mp-625208,151146,1,mp-626835,0.0136,0.0046,0.189,,
same SGs,H8 O6 Pt1,150543,1,mp-625154,150506,1,mp-625112,0.012,0.0512,0.329,,
same SGs,H8 O6 Pt1,150543,1,mp-625154,150507,1,mp-625113,0.00266,0.0877,0.413,,
same SGs,H8 O6 Pt1,150506,1,mp-625112,150507,1,mp-625113,0.0146,0.0365,0.0838,,
same SGs,Cu1 O1,154121,225,mp-704419,10707,225,mp-14549,0.0236,0.05,0.041,,
same SGs,Li3 O12 P3 Sb2,170605,14,mp-775486,49851,14,mp-684539,0.00803,0.22,0.185,,
same SGs,Li1 O9 P3 Sn1,161993,19,mp-758086,49556,19,mp-684509,0.00667,0.0271,0.0821,,
diff. SGs,H2 O7 Ti3,150743,1,mp-626567,150740,2,mp-626547,0.00556,0.0422,1.15,"(0.125,0.416)",similar
diff. SGs,H8 O6 Pt1,150510,9,mp-625111,150506,1,mp-625112,0.000201,0.0385,0.0497,"(0.124,0.398)",similar
diff. SGs,H8 O6 Pt1,150510,9,mp-625111,150507,1,mp-625113,0.0144,0.075,0.0342,"(0.199,0.63)",different