category,composition,snlgroup_id 1,sg_num 1,task_id 1,snlgroup_id 2,sg_num 2,task_id 2,delta_energy,delta_bandgap,delta_volume_per_atom,scenario
same SGs,S1 Zn1,41732,-1,,41728,-1,,,,,
same SGs,S1 Zn1,41733,-1,,41728,-1,,,,,
same SGs,S1 Zn1,41733,-1,,41727,-1,,,,,
same SGs,S1 Zn1,41731,-1,,41730,-1,,,,,
same SGs,S1 Zn1,41731,-1,,36019,-1,,,,,
same SGs,S1 Zn1,41731,-1,,36021,-1,,,,,
same SGs,S1 Zn1,41731,-1,,18891,-1,,,,,
same SGs,S1 Zn1,41734,-1,,41711,-1,,,,,
same SGs,S1 Zn1,41728,-1,,41730,-1,,,,,
same SGs,S1 Zn1,41728,-1,,36019,-1,,,,,
same SGs,S1 Zn1,41728,-1,,36020,-1,,,,,
same SGs,S1 Zn1,41730,-1,,42362,-1,,,,,
same SGs,S1 Zn1,41727,-1,,36020,-1,,,,,
same SGs,S1 Zn1,41726,156,mp-555782,41706,156,mp-556155,1.11e-06,0.0006,7.38e-05,
same SGs,S1 Zn1,41725,-1,,42070,-1,,,,,
same SGs,S1 Zn1,41724,160,,18896,160,,,,,
same SGs,S1 Zn1,41724,160,,36013,160,,,,,
same SGs,S1 Zn1,41724,160,,18899,160,,,,,
same SGs,S1 Zn1,41722,-1,,36071,-1,mp-554608,,,,
same SGs,S1 Zn1,41721,-1,,41720,-1,,,,,
same SGs,S1 Zn1,41721,-1,,6388,-1,,,,,
same SGs,S1 Zn1,42357,-1,,19026,-1,,,,,
same SGs,S1 Zn1,42357,-1,,19025,-1,,,,,
same SGs,S1 Zn1,41719,-1,,41718,-1,mp-554253,,,,
same SGs,S1 Zn1,41716,-1,,41715,-1,,,,,
same SGs,S1 Zn1,41716,-1,,36076,-1,,,,,
same SGs,S1 Zn1,36043,-1,mp-554503,36041,-1,mp-555079,0.000188,0.0001,0.0024,
same SGs,S1 Zn1,41715,-1,,36076,-1,,,,,
same SGs,S1 Zn1,41710,-1,,18891,-1,,,,,
same SGs,S1 Zn1,41710,-1,,18892,-1,,,,,
same SGs,S1 Zn1,41710,-1,,41709,-1,,,,,
same SGs,S1 Zn1,36058,-1,mp-582680,36060,-1,,,,,
same SGs,S1 Zn1,36008,156,mp-557054,36009,156,mp-556716,1.13e-05,0.0023,0.000506,
same SGs,S1 Zn1,36008,156,mp-557054,18893,156,mp-556161,0.000403,0.0068,0.00602,
same SGs,S1 Zn1,36008,156,mp-557054,18894,156,mp-556392,0.000403,0.0085,0.00535,
same SGs,S1 Zn1,36077,-1,mp-555628,36034,-1,,,,,
same SGs,S1 Zn1,36009,156,mp-556716,18894,156,mp-556392,0.000414,0.0062,0.00585,
same SGs,S1 Zn1,36051,-1,mp-555666,36053,-1,,,,,
same SGs,S1 Zn1,36051,-1,mp-555666,36054,-1,,,,,
same SGs,S1 Zn1,36047,-1,,36044,-1,mp-554004,,,,
same SGs,S1 Zn1,36029,-1,,18900,-1,mp-554115,,,,
same SGs,S1 Zn1,36029,-1,,36026,-1,,,,,
same SGs,S1 Zn1,36029,-1,,36025,-1,,,,,
same SGs,S1 Zn1,36042,-1,mp-554961,36041,-1,mp-555079,0.000188,0.0039,0.0023,
same SGs,S1 Zn1,36028,-1,,36025,-1,,,,,
same SGs,S1 Zn1,36028,-1,,18983,-1,mp-555664,,,,
same SGs,S1 Zn1,36028,-1,,41763,-1,mp-554829,,,,
same SGs,S1 Zn1,36028,-1,,18984,-1,mp-555594,,,,
same SGs,S1 Zn1,18896,160,,36011,160,,,,,
same SGs,S1 Zn1,18896,160,,18895,160,,,,,
same SGs,S1 Zn1,18896,160,,36013,160,,,,,
same SGs,S1 Zn1,18896,160,,18899,160,,,,,
same SGs,S1 Zn1,18897,160,,36012,160,,,,,
same SGs,S1 Zn1,18897,160,,18899,160,,,,,
same SGs,S1 Zn1,18897,160,,18898,160,,,,,
same SGs,S1 Zn1,36017,156,mp-556280,41706,156,mp-556155,4.74e-07,0.0004,0.000199,
same SGs,S1 Zn1,18900,-1,mp-554115,36026,-1,,,,,
same SGs,S1 Zn1,18900,-1,mp-554115,36025,-1,,,,,
same SGs,S1 Zn1,36019,-1,,36021,-1,,,,,
same SGs,S1 Zn1,36019,-1,,36020,-1,,,,,
same SGs,S1 Zn1,36019,-1,,18892,-1,,,,,
same SGs,S1 Zn1,36021,-1,,42362,-1,,,,,
same SGs,S1 Zn1,36036,-1,,36035,-1,mp-581405,,,,
same SGs,S1 Zn1,36027,-1,,18985,-1,mp-555543,,,,
same SGs,S1 Zn1,36027,-1,,36025,-1,,,,,
same SGs,S1 Zn1,36027,-1,,36070,-1,mp-553916,,,,
same SGs,S1 Zn1,36027,-1,,41763,-1,mp-554829,,,,
same SGs,S1 Zn1,36031,-1,,36030,-1,,,,,
same SGs,S1 Zn1,36031,-1,,36024,-1,mp-554630,,,,
same SGs,S1 Zn1,6587,160,mp-557151,36000,160,mp-556468,1.69e-06,0.0005,0.000241,
same SGs,S1 Zn1,6587,160,mp-557151,36001,160,mp-556576,0.00159,0.0315,0.0157,
same SGs,S1 Zn1,36026,-1,,36025,-1,,,,,
same SGs,S1 Zn1,42079,156,mp-557026,42073,156,mp-556448,0.000293,0.0071,0.00281,
same SGs,S1 Zn1,19026,-1,,36015,-1,,,,,
same SGs,S1 Zn1,19026,-1,,19025,-1,,,,,
same SGs,S1 Zn1,36020,-1,,18891,-1,,,,,
same SGs,S1 Zn1,36020,-1,,42362,-1,,,,,
same SGs,S1 Zn1,18888,160,mp-581602,18890,160,mp-581258,8.5e-06,0.0004,0.000308,
same SGs,S1 Zn1,18890,160,mp-581258,6585,160,mp-608468,0.0398,0.0575,0.173,
same SGs,S1 Zn1,18891,-1,,18892,-1,,,,,
same SGs,S1 Zn1,36012,160,,18899,160,,,,,
same SGs,S1 Zn1,36012,160,,18898,160,,,,,
same SGs,S1 Zn1,36011,160,,18899,160,,,,,
same SGs,S1 Zn1,18895,160,,18899,160,,,,,
same SGs,S1 Zn1,18895,160,,18898,160,,,,,
same SGs,S1 Zn1,36040,-1,,6386,-1,mp-555311,,,,
same SGs,S1 Zn1,36004,160,mp-556105,41708,160,mp-555858,6.12e-06,0.0332,0.087,
same SGs,S1 Zn1,36004,160,mp-556105,36005,160,mp-18377,0.00064,0.0063,0.0319,
same SGs,S1 Zn1,18985,-1,mp-555543,36025,-1,,,,,
same SGs,S1 Zn1,18985,-1,mp-555543,18983,-1,mp-555664,0.00022,0.0043,0.000343,
same SGs,S1 Zn1,18985,-1,mp-555543,18984,-1,mp-555594,3.79e-05,0.0002,0.0305,
same SGs,S1 Zn1,36025,-1,,18983,-1,mp-555664,,,,
same SGs,S1 Zn1,36025,-1,,36070,-1,mp-553916,,,,
same SGs,S1 Zn1,36025,-1,,18984,-1,mp-555594,,,,
same SGs,S1 Zn1,18983,-1,mp-555664,18984,-1,mp-555594,0.000182,0.0045,0.0302,
same SGs,S1 Zn1,41720,-1,,6385,-1,mp-553880,,,,
same SGs,S1 Zn1,41720,-1,,6388,-1,,,,,
same SGs,S1 Zn1,6585,160,mp-608468,18884,160,mp-581412,0.0404,0.0459,0.176,
same SGs,S1 Zn1,36023,-1,mp-554999,36032,-1,,,,,
same SGs,S1 Zn1,41712,156,mp-556784,41713,156,mp-556543,1.03e-06,0.0012,0.000905,
same SGs,S1 Zn1,6386,-1,mp-555311,6388,-1,,,,,
diff. SGs,S1 Zn1,36005,160,mp-18377,6586,156,mp-557308,0.011,0.0071,0.0393,different
same SGs,S1 Zn1,18893,156,mp-556161,18894,156,mp-556392,6.07e-07,0.0017,0.000673,
same SGs,S1 Zn1,36070,-1,mp-553916,36032,-1,,,,,
same SGs,S1 Zn1,36070,-1,mp-553916,41763,-1,mp-554829,5.81e-06,0.0013,0.00212,
same SGs,S1 Zn1,36070,-1,mp-553916,18984,-1,mp-555594,3.13e-05,0.0013,0.0292,
same SGs,S1 Zn1,18892,-1,,41709,-1,,,,,
same SGs,S1 Zn1,18884,160,mp-581412,18883,160,mp-581476,9.95e-06,0.0022,0.014,
same SGs,S1 Zn1,18883,160,mp-581476,18885,160,mp-581601,8.76e-07,0.0022,0.0099,