category,composition,snlgroup_id 1,sg_num 1,task_id 1,snlgroup_id 2,sg_num 2,task_id 2,delta_energy,delta_bandgap,delta_volume_per_atom,rms_dist,scenario
diff. SGs,Cu1 O1,84594,131,mp-1692,154273,15,mp-704645,0.00451,0,0.0234,"(0.028,0.0396)",similar
diff. SGs,Ag2 Se1,158802,19,mp-754954,87406,62,mp-568971,0.00117,0.787,0.544,"(0.215,0.313)",different
same SGs,Li1 O9 P3 V1,162141,19,mp-763401,49059,19,mp-32483,0.0048,0.258,0.119,,
same SGs,Li1 O8 P2 V1,86737,1,mp-32471,49476,1,mp-689929,0.025,0.0043,0.423,,
same SGs,Bi2 Li3 O12 P3,173027,14,mp-780333,49446,14,mp-684504,0.00814,0.356,0.0792,,
same SGs,Cu1 Li1 O9 P3,163645,19,mp-759435,45864,19,mp-12185,0.00907,0.213,0.0817,,
same SGs,Cr3 O8,154153,12,mp-715515,86957,12,mp-561779,0.000253,0.0244,0.0408,,
same SGs,Cr3 O8,154154,12,mp-715561,86619,12,mp-557959,0.000724,0.0013,0.276,,
diff. SGs,O3 Pb2,153180,6,mp-690722,152051,12,mp-655547,0.00432,0.0451,0.239,"(0.022,0.046)",similar
same SGs,Na3 O12 P1 Si2 Zr2,55605,1,mp-677437,54785,1,mp-39123,0.00233,0.202,0.293,,
diff. SGs,C2 Li2 O6 V1,164039,5,mp-765104,164012,43,mp-765113,0.00491,0.0089,0.0252,"(0.154,0.654)",similar
diff. SGs,Ag1 N2 Na1 O4,35090,22,mp-554048,17150,43,mp-558460,0.0053,0.132,0.219,"(0.159,0.313)",different
diff. SGs,O2 Sb1,10862,33,mp-230,4827,52,mp-560098,0.00113,0.0227,0.0639,"(0.122,0.18)",similar
diff. SGs,F3 La1,5909,185,mp-334,85510,193,mp-17171,0.143,1.1,0.366,"(0.188,0.487)",different
diff. SGs,F3 La1,5909,185,mp-334,2422,165,mp-905,0.000626,0.0023,0.0078,"(0.0716,0.101)",similar
diff. SGs,F3 La1,4944,225,mp-13181,2423,139,mp-323,0.00935,0.0496,0.0328,"(2.15e-16,3.19e-16)",similar
diff. SGs,F3 La1,85510,193,mp-17171,2422,165,mp-905,0.144,1.1,0.374,"(0.179,0.501)",different
same SGs,Cr1 O9 P3,163703,19,mp-764853,48954,19,mp-31738,0.00332,0.111,0.673,,
same SGs,Co1 O1,154148,216,mp-715460,3392,216,mp-24864,0.0384,0.619,0.295,,
same SGs,Fe2 Mo3 O12,48630,14,mp-705435,40739,14,mp-706565,0.0012,0.0609,0.634,,
same SGs,H2 Mo1 O4,151069,1,mp-626586,150660,1,mp-625563,0.0214,2.18,0.172,,
same SGs,H2 Mo1 O4,151069,1,mp-626586,151055,1,mp-626582,0.0296,0.337,0.262,,
same SGs,H2 Mo1 O4,151058,2,mp-626577,150657,2,mp-625551,0.106,0.822,0.424,,
same SGs,H2 Mo1 O4,150688,1,mp-625600,150660,1,mp-625563,0.0549,3.2,0.287,,
same SGs,H2 Mo1 O4,150688,1,mp-625600,151055,1,mp-626582,0.0468,0.682,0.197,,
same SGs,H3 O5 Re1,151144,1,mp-626819,151111,1,mp-626800,0.00685,0.0775,0.114,,
same SGs,H3 O5 Re1,151144,1,mp-626819,151109,1,mp-626788,0.00239,0.0873,1.07,,
same SGs,H2 Mo1 O4,150660,1,mp-625563,151055,1,mp-626582,0.00817,2.52,0.0901,,
same SGs,H3 O5 Re1,151137,1,mp-626799,151111,1,mp-626800,0.0283,0.132,0.542,,
same SGs,H3 O5 Re1,151137,1,mp-626799,151109,1,mp-626788,0.019,0.0324,0.638,,
same SGs,H1 O3 Te1,150798,7,mp-625856,150773,7,mp-625913,0.00969,0.134,0.103,,
same SGs,H1 O3 Te1,150798,7,mp-625856,150719,7,mp-625657,0.0163,0.135,0.223,,
same SGs,H3 O5 Re1,151111,1,mp-626800,151109,1,mp-626788,0.00924,0.165,1.18,,
same SGs,H1 O3 Te1,150718,33,mp-625654,150685,33,mp-625630,0.00606,0.0668,0.195,,
same SGs,Cr1 O4 Sb1,174588,65,mp-774944,86942,65,mp-33857,0.00017,0.0075,0.0265,,
diff. SGs,In2 S4 Zn1,15747,186,mp-560262,11662,160,mp-616900,0.0109,0.0149,0.0153,"(0.271,0.632)",different
diff. SGs,Ba1 Bi1 O3,12129,225,mp-23438,1391,148,mp-23482,0.0223,0.0328,0.115,"(0.0873,0.112)",different
diff. SGs,Ba1 Bi1 O3,12129,225,mp-23438,1390,12,mp-22942,0.0235,0.0554,0.0839,"(0.104,0.134)",different
diff. SGs,Ba1 Bi1 O3,1391,148,mp-23482,1390,12,mp-22942,0.00124,0.0226,0.0313,"(0.0648,0.121)",similar
diff. SGs,Nb1 O5 P1,37138,33,mp-556918,13029,62,mp-5803,0.000686,0.094,0.0705,"(0.0664,0.119)",similar
diff. SGs,Be1 F2,42628,152,mp-15951,9581,180,mp-558118,3.44e-06,0.237,0.834,"(0.14,0.166)",different
diff. SGs,Cr1 O9 P3,37097,9,mp-566776,44072,15,mp-566761,0.0011,0.0506,0.0791,"(0.0987,0.237)",similar
diff. SGs,Co2 O5 Sr2,35161,46,mp-549498,85703,1,mp-556076,0.0048,0.161,0.0426,"(0.0607,0.148)",different
diff. SGs,Br1 Cu1,86058,119,mp-32880,7616,216,mp-22913,0.00455,0.0379,0.0582,"(1.57e-16,1.57e-16)",similar
diff. SGs,Co1 O1,84828,139,mp-19275,2325,225,mp-19079,0.304,0.0046,0.073,"(1.19e-06,1.19e-06)",different
diff. SGs,Pr1,85086,8,mp-20537,23289,225,mp-97,0.00251,0.0529,0.0952,"(0,0)",similar
diff. SGs,Fe2 Mo3 O12,48630,14,mp-705435,46202,4,mp-704851,0.00128,0.0654,0.599,"(0.176,0.391)",similar
diff. SGs,Fe2 Mo3 O12,46202,4,mp-704851,40739,14,mp-706565,7.79e-05,0.0045,0.0349,"(0.0438,0.172)",similar
diff. SGs,Al1 Co1 Li2 O4,168209,33,mp-770553,168029,14,mp-771906,0.00595,0.0399,0.292,"(0.195,0.399)",similar
diff. SGs,Al1 Co1 Li2 O4,160619,7,mp-769801,160518,20,mp-769769,0.00566,0.0518,0.329,"(0.214,0.418)",similar
diff. SGs,H4 O6 Sr1,150786,15,mp-625812,150794,9,mp-625836,0.0385,0.593,0.486,"(0.214,0.473)",different
diff. SGs,H2 Mo1 O4,151069,1,mp-626586,151058,2,mp-626577,0.0771,0.978,0.298,"(0.191,0.559)",different
diff. SGs,H2 Mo1 O4,151069,1,mp-626586,150657,2,mp-625551,0.0289,0.157,0.127,"(0.151,0.403)",different
diff. SGs,H2 Mo1 O4,151058,2,mp-626577,150688,1,mp-625600,0.000805,0.0402,0.162,"(0.117,0.292)",similar
diff. SGs,H2 Mo1 O4,151058,2,mp-626577,150660,1,mp-625563,0.0558,3.16,0.125,"(0.171,0.52)",different
diff. SGs,H2 Mo1 O4,151058,2,mp-626577,151055,1,mp-626582,0.0476,0.641,0.0351,"(0.176,0.549)",different
diff. SGs,H2 Mo1 O4,150688,1,mp-625600,150657,2,mp-625551,0.105,0.862,0.587,"(0.248,0.64)",different
diff. SGs,H2 Mo1 O4,151055,1,mp-626582,150657,2,mp-625551,0.0585,0.18,0.389,"(0.176,0.532)",different
diff. SGs,H1 O3 Te1,150798,7,mp-625856,150718,33,mp-625654,0.0103,0.0337,0.238,"(0.123,0.49)",different
diff. SGs,H1 O3 Te1,150798,7,mp-625856,150685,33,mp-625630,0.0163,0.1,0.0432,"(0.248,0.595)",different
diff. SGs,H1 O3 Te1,150773,7,mp-625913,150718,33,mp-625654,0.000577,0.1,0.135,"(0.225,0.602)",similar
diff. SGs,H1 O3 Te1,150719,7,mp-625657,150718,33,mp-625654,0.00606,0.101,0.0149,"(0.218,0.824)",different
diff. SGs,H1 O3 Te1,150719,7,mp-625657,150685,33,mp-625630,3.44e-06,0.0345,0.18,"(0.214,0.491)",similar
diff. SGs,Al1 Ce1 O3,5569,167,mp-3408,5568,74,mp-19843,0.00402,0.0055,0.0201,"(0.0577,0.0892)",similar
diff. SGs,Al1 Ce1 O3,5569,167,mp-3408,5266,140,mp-4096,0.00379,0.0057,0.02,"(0.0629,0.0871)",similar
diff. SGs,Al1 Ce1 O3,5568,74,mp-19843,5266,140,mp-4096,0.00781,0.0002,0.0401,"(0.0775,0.148)",similar
diff. SGs,Na1 O3 Ta1,42010,63,mp-4699,905,62,mp-3858,0.00141,0.233,0.0522,"(0.0748,0.115)",different
same SGs,H3 N1 O4,150954,33,mp-626259,150968,33,mp-626289,0.00766,0.39,0.97,,
same SGs,H3 N1 O4,150954,33,mp-626259,150951,33,mp-626261,0.0665,0.428,1.01,,
same SGs,H3 N1 O4,150954,33,mp-626259,89218,33,mp-626256,0.0677,0.413,1.15,,
same SGs,H3 N1 O4,154364,33,mp-706430,150951,33,mp-626261,0.05,0.157,1.31,,
same SGs,H3 N1 O4,154364,33,mp-706430,89218,33,mp-626256,0.0511,0.172,1.17,,
same SGs,H3 N1 O4,150951,33,mp-626261,89218,33,mp-626256,0.00114,0.0155,0.143,,
same SGs,Cl1 H5 O6,150943,19,mp-626219,150911,19,mp-626228,0.0474,0.597,0.000216,,
same SGs,Cl1 H5 O6,150943,19,mp-626219,150908,19,mp-626201,0.0491,0.632,0.224,,
same SGs,Cl1 H5 O6,150911,19,mp-626228,150908,19,mp-626201,0.00168,0.0344,0.225,,
same SGs,Li3 O12 P3 Sn2,161800,14,mp-757899,49500,14,mp-26701,0.00914,0.304,0.543,,
same SGs,Be1 F4 H8 N2,89840,62,mp-720982,3978,62,mp-604245,0.00135,0.062,0.0136,,
same SGs,I1 Li1 O3,9024,173,mp-613442,8300,173,mp-22955,0.000772,0.0339,0.0754,,
same SGs,O8 U3,47311,63,mp-560402,36858,63,mp-559906,0.00422,0.0184,0.126,,
same SGs,Al1 Ca1 H5,152039,19,mp-654956,86571,19,mp-583071,0.0157,0.0417,0.052,,
same SGs,Cr1 Li1 O9 P3,167373,19,mp-780193,48953,19,mp-31712,0.00324,0.566,0.0361,,
diff. SGs,H3 La1 O3,150739,1,mp-625788,150733,173,mp-625733,0.000626,0.0143,0.141,"(0.146,0.279)",similar
diff. SGs,H3 La1 O3,150739,1,mp-625788,150631,11,mp-625406,0.000801,0.249,0.178,"(0.166,0.279)",different
diff. SGs,H3 La1 O3,150739,1,mp-625788,94599,176,mp-625394,0.0022,0.289,0.0609,"(0.247,0.414)",different
diff. SGs,H3 La1 O3,150733,173,mp-625733,150631,11,mp-625406,0.000175,0.263,0.319,"(0.193,0.212)",different
diff. SGs,H3 La1 O3,150733,173,mp-625733,94599,176,mp-625394,0.00158,0.304,0.0803,"(0.245,0.328)",different
diff. SGs,H3 La1 O3,150631,11,mp-625406,94599,176,mp-625394,0.0014,0.0407,0.239,"(0.138,0.251)",similar
diff. SGs,Cl1 H5 O6,150944,62,mp-626222,150943,19,mp-626219,0.000393,0.201,0.191,"(0.268,0.543)",different
diff. SGs,Cl1 H5 O6,150944,62,mp-626222,150908,19,mp-626201,0.0495,0.833,0.415,"(0.285,0.553)",different
diff. SGs,K1 Li1 O4 S1,12980,9,mp-6318,10300,159,mp-6800,8.6e-05,0.0066,0.00414,"(0.0843,0.134)",similar
diff. SGs,K1 Li1 O4 S1,12980,9,mp-6318,4053,173,mp-6179,0.000103,0.0042,0.00474,"(0.267,0.583)",similar
diff. SGs,K1 Li1 O4 S1,10300,159,mp-6800,4053,173,mp-6179,0.000189,0.0024,0.00888,"(0.252,0.544)",similar
diff. SGs,Na1 O5 V2,34311,31,mp-505821,43938,42,mp-565227,0.00379,0.784,0.129,"(0.139,0.237)",different
diff. SGs,Na1 O5 V2,34311,31,mp-505821,18397,59,mp-19111,0.0129,0.811,0.22,"(0.138,0.23)",different
diff. SGs,Na1 O5 V2,43938,42,mp-565227,18397,59,mp-19111,0.00907,0.027,0.0915,"(0.0154,0.0303)",similar
diff. SGs,Mo2 O12 P3,85024,5,mp-32077,86920,1,mp-32055,0.00278,0.177,0.0775,"(0.0517,0.103)",different
diff. SGs,Mo2 O12 P3,85024,5,mp-32077,49767,2,mp-32094,0.00174,0.0982,0.0331,"(0.124,0.217)",similar
diff. SGs,Mo2 O12 P3,86920,1,mp-32055,49767,2,mp-32094,0.00452,0.276,0.0445,"(0.0986,0.19)",different
diff. SGs,I1 Li1 O3,23523,182,mp-545343,9024,173,mp-613442,0.238,3.69,2.56,"(0.182,0.216)",different
diff. SGs,I1 Li1 O3,23523,182,mp-545343,8300,173,mp-22955,0.239,3.65,2.64,"(0.176,0.211)",different
diff. SGs,O8 U3,84595,65,mp-698,1714,189,mp-308,0.0031,0.0662,0.0738,"(0.0963,0.203)",similar
diff. SGs,H13 N3 O8 Se2,106657,9,mp-697645,99201,15,mp-707274,0.000637,0.113,0.0227,"(0.163,0.386)",different
diff. SGs,Ba1 O4 W1,85883,63,mp-566504,34404,11,mp-641366,0.00513,0.239,0.53,"(0.0502,0.0864)",different
diff. SGs,F1 Tl1,86520,39,mp-558134,26379,129,mp-557835,0.000633,0.0242,0.0927,"(0.0255,0.0289)",similar
diff. SGs,O3 Sr1 Te1,152109,2,mp-667421,151964,9,mp-647158,0.000125,0.0685,0.00881,"(0.0137,0.0279)",similar
diff. SGs,C1 Li1 Na1 O3,41187,1,mp-556783,39892,174,mp-559533,3.15e-05,0.054,0.0598,"(0.0549,0.13)",similar
diff. SGs,F8 O5 Y6,162444,5,mp-758174,152578,1,mp-676605,0.0413,0.118,0.822,"(0.203,0.453)",different
same SGs,O3 Sr1 Te1,36239,5,mp-561394,35485,5,mp-561385,0.0024,0.0527,0.217,,
diff. SGs,C2 Ca1,151768,2,mp-642822,21991,12,mp-917,0.0103,0.16,0.128,"(0.134,0.139)",different
diff. SGs,C2 Ca1,21991,12,mp-917,21990,15,mp-1575,0.000766,0.32,0.0466,"(0.123,0.147)",different
diff. SGs,F4 Na1 Y1,87315,174,mp-37267,85035,143,mp-34806,0.000103,0.0358,0.0258,"(0.0118,0.0397)",similar
diff. SGs,Cl3 Ti1,45048,163,mp-567330,45050,15,mp-571424,0.00135,0.0319,0.497,"(0.0426,0.0554)",similar
diff. SGs,H2 Mg1,2606,29,mp-569051,2604,60,mp-23711,0.0398,1.28,1,"(0.241,0.344)",different
diff. SGs,H3 O3 P1,150564,4,mp-625249,150562,33,mp-625231,0.0149,0.102,0.292,"(0.143,0.455)",different
same SGs,Cu1 F3 K1,152123,140,mp-669347,7704,140,mp-3682,0.00413,0.111,0.24,,
same SGs,Cr1 O3,59,40,mp-561804,8539,40,mp-510421,0.00213,0.0148,0.218,,
diff. SGs,Li2 Mn1 O6 Si2,155995,9,mp-764791,157448,15,mp-767686,0.00543,0.0503,0.0123,"(0.138,0.369)",similar
diff. SGs,Al1 Li2 O4 V1,159644,20,mp-770183,158760,7,mp-770201,0.00614,0.205,0.478,"(0.205,0.395)",different
diff. SGs,Ca4 Nb2 O9,85692,1,mp-530194,85612,2,mp-531051,0.000301,0.0056,0.0203,"(0.284,0.521)",similar
same SGs,Be1 H2 O2,150795,19,mp-625837,150790,19,mp-625823,0.0684,0.375,0.431,,
same SGs,Fe1 H2 Li1 O5 P1,170107,33,mp-850403,173347,33,mp-780903,0.00388,0.425,0.124,,
same SGs,Ag1 F3 Li1,164994,14,mp-752837,161141,14,mp-756821,0.0262,0.0224,0.81,,
same SGs,H2 O4 S1,150642,9,mp-625445,150635,9,mp-625474,0.00907,0.0309,0.547,,
same SGs,O9 P3 Sn1,165822,19,mp-765595,49557,19,mp-26762,0.0112,0.0078,0.0212,,
same SGs,Li1 Mo2 O12 P3,49766,2,mp-32047,48864,2,mp-32066,0.00188,0.0184,0.0353,,
same SGs,H20 N2 O14 S2 Zn1,163439,14,mp-759665,153477,14,mp-696089,0.0577,0.31,0.418,,
same SGs,H20 N2 O14 S2 Zn1,154525,14,mp-707039,101300,14,mp-706284,0.167,4.93,0.477,,
diff. SGs,Br4 Rb2 Zn1,34964,62,mp-570168,28187,14,mp-636598,0.00365,0.0376,0.154,"(0.0749,0.117)",similar
diff. SGs,O3 Sc2,159282,167,mp-755313,159007,148,mp-754455,0.0477,0.108,0.663,"(0.224,0.594)",different
diff. SGs,H1 Mg16 O32 Si8,107797,1,mp-707516,88022,25,mp-24784,0.0126,0.0684,0.00908,"(0.095,0.667)",different
diff. SGs,H2 O4 S1,150642,9,mp-625445,95446,15,mp-690733,0.0475,0.52,0.326,"(0.228,0.432)",different
diff. SGs,H2 O4 S1,150635,9,mp-625474,95446,15,mp-690733,0.0565,0.551,0.221,"(0.253,0.448)",different
diff. SGs,Ca1 O3 Ti1,85408,74,mp-556003,1719,140,mp-3442,0.00745,0.234,0.00139,"(0.111,0.165)",different
diff. SGs,Mo2 O13 P3,86800,9,mp-540536,86740,15,mp-705358,0.0172,1.5,0.368,"(0.0199,0.0415)",different
diff. SGs,Ce1,22961,194,mp-20736,18713,63,mp-64,0.0489,0.0185,0.53,"(0.124,0.124)",different
diff. SGs,O13 V6,154941,63,mp-715617,10075,69,mp-566482,0.00414,0.276,0.0962,"(0.0544,0.0876)",different
diff. SGs,O13 V6,16989,12,mp-18896,84953,8,mp-19457,0.00253,0.337,0.0322,"(0.0978,0.25)",different
diff. SGs,Fe3 S4,41682,227,mp-21515,174898,166,mp-850016,0.0185,0.0019,0.172,"(0.031,0.0447)",different
diff. SGs,H1 Li2 N1,52416,160,mp-35695,51470,44,mp-34465,0.0213,0.294,0.23,"(0.105,0.182)",different
diff. SGs,F5 K2 Sb1,85619,14,mp-613518,37176,63,mp-3379,0.0392,0.0938,0.988,,different
diff. SGs,Bi1 O3 Sc1,85345,15,mp-555769,31923,9,mp-555313,0.000173,0.0238,0.0109,"(0.0377,0.0653)",similar
diff. SGs,Ce1 O4 P1,7579,181,mp-557624,9248,180,mp-8382,0.000105,0.0006,0.0123,"(0.000704,0.000863)",similar
diff. SGs,N1 Ta1,47586,191,mp-1497,25697,189,mp-1279,0.447,0,0.155,"(0.175,0.248)",different
diff. SGs,Li1 Mn1 O5 P1,161598,14,mp-761618,161574,2,mp-761610,0.0106,0.236,0.271,"(0.172,0.319)",different
diff. SGs,Ba1 Fe2 S4,152468,97,mp-676036,152289,79,mp-675078,0.0238,0,1.66,"(0.161,0.286)",different
diff. SGs,Ba1 Fe2 S4,152468,97,mp-676036,45255,87,mp-27660,0.0281,0,1.84,"(0.2,0.398)",different
diff. SGs,Ba1 Fe2 S4,152289,79,mp-675078,45255,87,mp-27660,0.0043,0,0.181,"(0.0474,0.107)",similar
diff. SGs,Mn4 O12 P3,87351,9,mp-585388,49579,161,mp-705354,0.00639,0.146,0.0485,"(0.0262,0.0486)",different
diff. SGs,Li1 O12 P3 Zr2,56273,5,mp-681439,17377,167,mp-541661,0.000612,0.102,0.493,"(0.124,0.484)",different
diff. SGs,Br3 Li6 N1,40733,225,mp-27508,54510,8,mp-676650,0.0299,0.007,0.212,"(0.23,0.344)",different
diff. SGs,K2 Mn2 O12 S3,40839,19,mp-565471,34770,198,mp-19525,0.00121,0.511,0.237,"(0.147,0.25)",different
same SGs,H3 In1 O3,151002,148,mp-626411,151001,148,mp-626412,5.25e-06,0.0053,0.00388,,
diff. SGs,Cd1 H2 O2,150684,5,mp-625565,123988,164,mp-625548,0.0107,0.149,0.101,"(0.159,0.216)",different
diff. SGs,Na2 O4 U1,43916,56,mp-669528,39553,61,mp-17560,0.0166,0.0729,0.521,"(0.242,0.412)",different
diff. SGs,F1 O1 Y1,151650,12,mp-634896,7714,166,mp-3637,0.449,0.0853,1.07,"(0.0904,0.102)",different
diff. SGs,F3 Sc1,23002,221,mp-10694,8375,155,mp-559092,0.00203,0.0304,0.0107,"(0.0253,0.0292)",similar
diff. SGs,Co2 O4 Si1,85428,14,mp-555558,7207,62,mp-25474,0.0271,0.299,0.0266,"(0.0117,0.0339)",different
diff. SGs,H1 K2 N1 O6 S2,56980,9,mp-695383,90921,15,mp-706912,0.00551,0.207,0.226,"(0.0767,0.251)",different
diff. SGs,I1,97108,139,mp-601148,151717,71,mp-639751,0.0444,0,5.01,"(0,0)",different
diff. SGs,O8 P2 Pb3,8523,12,mp-553956,8082,166,mp-22750,0.000723,0.055,0.104,"(0.0357,0.0561)",similar
diff. SGs,O5 V3,26257,15,mp-542441,154920,9,mp-714911,0.0228,1.02,0.058,"(0.022,0.0364)",different
diff. SGs,Te1 Zn1,84717,181,mp-9281,15120,144,mp-571195,0.148,0.782,2.85,"(0.271,0.379)",different
same SGs,B5 K1 O8,152112,61,mp-667471,151977,61,mp-648384,0.0216,0.154,0.0543,,
same SGs,Cr3 Li1 O8,174590,12,mp-774328,34478,12,mp-566811,0.000108,1.14,0.046,,
diff. SGs,H1 O1 Rb1,100340,11,mp-643043,151106,4,mp-626721,0.00634,0.242,0.538,"(0.121,0.17)",different
diff. SGs,H1 O1 Rb1,100340,11,mp-643043,100339,36,mp-626620,0.00797,0.232,0.671,"(0.118,0.144)",different
diff. SGs,H1 O1 Rb1,151106,4,mp-626721,100339,36,mp-626620,0.00163,0.0102,0.134,"(0.0686,0.0835)",similar
diff. SGs,Bi2 O9 Sr1 Ta2,24091,41,mp-559951,23918,36,mp-23089,0.00936,0.189,0.0236,"(0.11,0.235)",different
same SGs,Fe1 Li1 O5 P1,161562,14,mp-761489,161613,14,mp-761491,0.00848,0.0036,0.463,,
same SGs,Cu2 O4 W1,152104,2,mp-683666,85444,2,mp-651311,0.0515,0.107,1,,
same SGs,B2 Li3 Mn1 O6,168432,2,mp-770903,168533,2,mp-770904,0.0263,0.187,0.923,,
same SGs,H3 O4 P1,151008,14,mp-626449,151022,14,mp-626464,0.0132,0.0092,0.0481,,
same SGs,H3 O4 P1,151008,14,mp-626449,87736,14,mp-23902,0.0107,0.264,0.655,,
same SGs,H3 O4 P1,151022,14,mp-626464,87736,14,mp-23902,0.0239,0.273,0.607,,
diff. SGs,H2 O7 W2,150647,43,mp-625571,150646,141,mp-625530,0.113,0.472,0.0258,"(0.142,0.324)",different
diff. SGs,Cu2 O4 W1,85451,2,mp-505402,40965,1,mp-622026,0.00519,0.0378,0.22,"(0.0815,0.127)",similar
diff. SGs,Cu1 S1,4900,194,mp-504,10597,63,mp-555599,0.000404,0,0.00459,"(0.0427,0.0742)",similar
diff. SGs,Cr2 O12 P3,85217,167,mp-540211,49417,148,mp-540340,0.00368,0.01,0.175,"(0.155,0.231)",similar
diff. SGs,Cr2 O12 P3,85217,167,mp-540211,49357,2,mp-540317,0.00393,0.021,0.175,"(0.129,0.216)",similar
diff. SGs,Ba1 O3 Pr1,4867,74,mp-6909,4868,167,mp-6910,0.0055,0.0141,0.00386,"(0.0591,0.086)",similar
diff. SGs,Cr2 O12 P3,49428,60,mp-540345,49315,14,mp-540294,0.000633,0.0862,0.372,"(0.125,0.226)",similar
diff. SGs,Cr2 O12 P3,49417,148,mp-540340,49357,2,mp-540317,0.000249,0.011,0.000565,"(0.0674,0.141)",similar
diff. SGs,Ag1 In1 Se2,153116,43,mp-686712,51929,141,mp-35071,0.00146,0.0403,0.0294,"(0.0339,0.0475)",similar
diff. SGs,Li1 Ni2 O4,88590,148,mp-504102,88291,227,mp-632491,0.0203,0.0084,0.0686,"(0.0417,0.0623)",different
diff. SGs,H3 O4 P1,151010,7,mp-626450,151008,14,mp-626449,0.00334,0.0169,0.0268,"(0.0854,0.331)",similar
diff. SGs,H3 O4 P1,151010,7,mp-626450,151022,14,mp-626464,0.00984,0.0261,0.075,"(0.193,0.49)",similar
diff. SGs,H3 O4 P1,151010,7,mp-626450,87736,14,mp-23902,0.0141,0.247,0.682,"(0.121,0.359)",different
diff. SGs,Ca1 H2 O2,88055,164,mp-23879,151085,5,mp-626644,0.00923,0.157,0.0956,"(0.156,0.215)",different
diff. SGs,Fe1 O4 Sb2,107215,84,mp-601882,2307,14,mp-601696,0.0178,1.02,1.15,"(0.237,0.393)",different
diff. SGs,Fe1 O4 Sb2,107215,84,mp-601882,2306,135,mp-510588,0.101,0.797,0.615,"(0.222,0.354)",different
diff. SGs,Fe1 O4 Sb2,2307,14,mp-601696,2306,135,mp-510588,0.119,0.224,0.534,"(0.074,0.109)",different
diff. SGs,Bi4 O12 Ti3,33936,9,mp-558277,99988,7,mp-723064,0.00373,0.113,0.0754,"(0.145,0.268)",different
diff. SGs,Bi4 O12 Ti3,33936,9,mp-558277,3657,41,mp-23427,0.00279,0.167,0.129,"(0.158,0.298)",different
diff. SGs,Bi4 O12 Ti3,99988,7,mp-723064,3657,41,mp-23427,0.00652,0.0534,0.0536,"(0.0522,0.0996)",similar
diff. SGs,H4 O3 Sr1,151102,4,mp-626727,88680,26,mp-28420,0.00213,0.0042,0.0928,"(0.0984,0.188)",similar
diff. SGs,Sn1,22812,229,mp-7162,19069,139,mp-55,0.0227,0.0997,0.178,"(0,0)",different
same SGs,I1 K1 O3,23954,1,mp-23487,9186,1,mp-613820,0.0154,0.0922,0.0677,,
same SGs,Li1 O8 P2 W1,162335,14,mp-763410,162334,14,mp-762199,0.00125,0.0038,0.588,,
same SGs,H3 Lu1 O3,150643,148,mp-625468,150618,148,mp-625392,0.000893,0.0697,0.0531,,
same SGs,B1 Co1 Li2 O4,167119,62,mp-771049,171812,62,mp-779364,0.0228,0.0803,0.184,,
same SGs,Li1 Mo2 O13 P3,85143,4,mp-32080,48771,4,mp-704198,0.0241,0.135,0.718,,
diff. SGs,Ca1 Cl2,6263,136,mp-22904,6262,58,mp-23214,0.000124,0.0401,0.214,"(0.0516,0.0631)",similar
diff. SGs,I1 K1 O3,34388,221,mp-558843,28220,160,mp-552729,0.201,2.57,3.78,"(0.112,0.122)",different
diff. SGs,Ca5 Cl1 O12 P3,87307,173,mp-39460,35254,176,mp-554236,0.00183,0.078,0.0503,"(0.0818,0.206)",similar
diff. SGs,Fe7 S8,174906,4,mp-850411,152959,14,mp-685128,0.00819,0,0.142,"(0.0308,0.0602)",similar
diff. SGs,Fe7 S8,42609,144,mp-21688,42593,152,mp-556435,0.0176,0.0228,0.425,"(0.0751,0.2)",different