category,composition,snlgroup_id 1,sg_num 1,task_id 1,snlgroup_id 2,sg_num 2,task_id 2,delta_energy,delta_bandgap,delta_volume_per_atom,rms_dist,scenario
diff. SGs,Dy3 O7 Ta1,159624,20,mp-755652,159790,63,mp-755461,0.0238,0.108,0.156,"(0.168,0.387)",different
diff. SGs,Gd3 Nb1 O7,129109,20,mp-780255,173691,63,mp-781897,0.0191,0.0938,0.198,"(0.179,0.369)",different
diff. SGs,Co1 K1 O2,33568,122,mp-18895,85943,82,mp-557137,0.00982,0.0613,0.596,"(0.0666,0.0942)",similar
same SGs,Bi2 Ni3 S2,43943,12,mp-553994,39785,12,mp-554205,0.000446,0,0.0245,,
same SGs,Bi1 O2,88288,72,mp-25333,88202,72,mp-25208,0.0415,0,2.17,,
diff. SGs,O8 W3,84830,65,mp-19066,154936,8,mp-715557,0.011,0.728,0.0553,"(0.0164,0.0264)",different
diff. SGs,Ba1 La1 O6 Ru1 Zn1,55312,82,mp-677191,54915,1,mp-39259,0.00229,0.0458,0.123,"(0.0528,0.0817)",similar
diff. SGs,Na1 O11 V6,39380,36,mp-567072,39379,186,mp-25156,0.0168,0.575,0.148,"(0.0257,0.0472)",different
diff. SGs,Na1 O11 V6,39380,36,mp-567072,35130,194,mp-510616,0.0155,0.509,0.14,"(0.0349,0.0679)",different
diff. SGs,Na1 O11 V6,39379,186,mp-25156,35130,194,mp-510616,0.00128,0.0667,0.00827,"(0.0231,0.0339)",similar
diff. SGs,Al1 K1 O4 Si1,37242,173,mp-8355,16542,159,mp-9480,0.000348,0.0008,0.000635,"(0.217,0.469)",similar
diff. SGs,Cr1 O2,2615,136,mp-19177,2616,58,mp-715488,0.0849,0.0353,0.194,"(0.038,0.0466)",different
diff. SGs,Cr1 O2,87812,166,mp-25499,154922,12,mp-714929,0.0305,0.0835,0.543,"(0.0315,0.0387)",different
diff. SGs,O4 S1 Sn1,85499,2,mp-645774,35740,14,mp-645709,0.0068,0.218,0.374,"(0.159,0.277)",different
diff. SGs,O4 S1 Sn1,85499,2,mp-645774,31104,62,mp-542967,0.0115,0.0525,0.41,"(0.101,0.146)",different
diff. SGs,O4 S1 Sn1,35740,14,mp-645709,31104,62,mp-542967,0.00468,0.166,0.0362,"(0.174,0.242)",different
same SGs,As5 Pb3 S10,169460,4,mp-773040,151970,4,mp-647590,0.052,0.254,0.716,,
same SGs,As5 Pb3 S10,151970,4,mp-647590,152108,4,mp-667418,0.00279,0.0693,0.577,,
same SGs,S1 Zn1,41736,-1,mp-554681,41735,-1,mp-554820,0.000189,0.0031,0.0036,,
same SGs,S1 Zn1,41736,-1,mp-554681,36043,-1,mp-554503,1.31e-06,0.0026,0.00143,,
same SGs,S1 Zn1,41736,-1,mp-554681,36041,-1,mp-555079,0.000189,0.0025,0.000968,,
same SGs,O12 S3 Sn2,167780,14,mp-768939,167630,14,mp-768936,0.00434,0.0165,0.0709,,
diff. SGs,Cu1 F4 K2,44076,140,mp-560238,39719,142,mp-2865,0.00351,0.23,0.134,"(0.0287,0.0594)",different
diff. SGs,H2 O4 P1 Tl1,106705,60,mp-643701,89857,14,mp-690711,0.00487,0.281,0.49,"(0.109,0.202)",different
diff. SGs,Ba1 O3 Pb1,11834,12,mp-20461,5587,140,mp-20991,0.00284,0.176,0.057,"(0.0454,0.0718)",different
diff. SGs,Ba1 O3 Pb1,11834,12,mp-20461,1941,74,mp-22230,8.57e-05,0.0375,0.00972,"(0.0248,0.0352)",similar
diff. SGs,Ba1 O3 Pb1,5587,140,mp-20991,1941,74,mp-22230,0.00275,0.139,0.0473,"(0.0571,0.0939)",different
diff. SGs,Cl4 K2 Zn1,15349,33,mp-618177,38492,62,mp-653454,0.00056,0.0039,0.178,"(0.0309,0.0427)",similar
diff. SGs,Ba1 O3 Tb1,42513,167,mp-548824,21080,74,mp-5735,0.000987,0,0.00268,"(0.0509,0.0855)",similar
diff. SGs,Ba1 O3 Tb1,42513,167,mp-548824,31359,140,mp-2939,0.00365,0,0.0518,"(0.0633,0.091)",similar
diff. SGs,Ba1 O3 Tb1,42513,167,mp-548824,19550,62,mp-20129,0.000456,0.008,0.00356,"(0.0882,0.123)",similar
diff. SGs,Ba1 O3 Tb1,21080,74,mp-5735,31359,140,mp-2939,0.00464,0,0.0544,"(0.0616,0.103)",similar
diff. SGs,Ba1 O3 Tb1,21080,74,mp-5735,19550,62,mp-20129,0.000531,0.008,0.000882,"(0.0525,0.0736)",similar
diff. SGs,Ba1 O3 Tb1,31359,140,mp-2939,19550,62,mp-20129,0.00411,0.008,0.0553,"(0.101,0.162)",similar
diff. SGs,O2 Se1,46888,55,mp-638005,14909,135,mp-726,0.0476,0.139,1.6,"(0.133,0.201)",different
diff. SGs,Cr1 F3 K1,86560,87,mp-560547,32294,12,mp-566698,0.00466,0.088,0.121,"(0.0472,0.0749)",similar
diff. SGs,Cr1 F3 K1,84820,221,mp-555036,1063,123,mp-566131,0.0538,1.1,0.393,"(9.98e-06,1.48e-05)",different
diff. SGs,Cs1 Li1 O4 S1,17179,14,mp-6726,10402,62,mp-6597,0.00328,0.0848,0.0162,"(0.0787,0.132)",similar
diff. SGs,C4 O4 Ru1,150434,45,mp-616541,13197,72,mp-655353,0.000355,0.0086,0.133,"(0.0134,0.0211)",similar
diff. SGs,O12 S3 Sb2,167377,167,mp-768500,165941,148,mp-768486,0.00681,0.472,0.401,"(0.205,0.3)",different
diff. SGs,Fe1 O2 Rb1,165656,92,mp-770272,159905,33,mp-769751,0.00213,0.0058,0.0194,"(0.182,0.447)",similar
diff. SGs,F4 Fe1 Rb1,16457,18,mp-619475,9334,57,mp-557485,0.00772,0.0807,0.0297,"(0.172,0.328)",similar
diff. SGs,Ca1 O4 S1,85999,181,mp-556372,3583,180,mp-3082,1.74e-05,0.0124,0.00205,"(0.00383,0.00563)",similar
diff. SGs,Al4 Fe1 Na6 O26 Si8,152900,5,mp-705484,57328,1,mp-42298,0.00072,0.196,0.00844,"(0.0339,0.0682)",different
diff. SGs,Al2 Ba1 O4,39433,182,mp-3828,14294,173,mp-4202,0.0036,0.155,0.038,"(0.0703,0.162)",different
diff. SGs,Al2 Ca1 H4 O10 Si2,88438,62,mp-505288,3585,33,mp-24603,0.00153,0.0234,0.0195,"(0.0448,0.1)",similar
diff. SGs,O3 Sr1 Zr1,42597,63,mp-3626,12210,62,mp-4387,0.00816,0.204,0.0484,"(0.0876,0.15)",different
diff. SGs,O12 S3 Sn2,168151,60,mp-768943,167780,14,mp-768939,0.0796,1.18,0.402,"(0.224,0.387)",different
diff. SGs,O12 S3 Sn2,168151,60,mp-768943,167630,14,mp-768936,0.084,1.17,0.473,"(0.23,0.433)",different
diff. SGs,Hf1 O3 Pb1,43056,32,mp-669414,1259,55,mp-22734,0.00412,0.0741,0.215,"(0.101,0.246)",similar
same SGs,Cl4 Cu1 H12 N2 O2,92147,136,mp-721415,4610,136,mp-604996,0.00405,0.122,0.371,,
diff. SGs,O9 Rb1 W3,87230,191,mp-565431,85137,10,mp-19617,0.0037,0,0.0524,"(0.00822,0.0214)",similar
diff. SGs,Ba2 Bi1 O6 Sb1,44990,12,mp-23127,10749,225,mp-545603,0.0087,0.054,0.0604,"(0.0861,0.141)",similar
diff. SGs,Ba2 Bi1 O6 Sb1,44990,12,mp-23127,4385,148,mp-23091,0.000144,0.0784,0.000318,"(0.0573,0.0816)",similar
diff. SGs,Ba2 Bi1 O6 Sb1,10749,225,mp-545603,4385,148,mp-23091,0.00855,0.132,0.0608,"(0.067,0.0834)",different
diff. SGs,Bi1 O4 V1,10204,88,mp-25122,9092,15,mp-504878,3.92e-05,0.04,0.0275,"(0.0415,0.0508)",similar
diff. SGs,Cl4 Cu1 H12 N2 O2,92147,136,mp-721415,55574,1,mp-677406,0.00704,0.0432,0.265,"(0.249,0.565)",similar
diff. SGs,Cl4 Cu1 H12 N2 O2,55574,1,mp-677406,4610,136,mp-604996,0.0111,0.0787,0.106,"(0.195,0.496)",different
diff. SGs,Ca1 Si2,2110,191,mp-12892,2109,164,mp-8372,0.0642,0,1.16,"(0.119,0.146)",different
diff. SGs,Ca1 O5 Si1 Ti1,9205,14,mp-6109,9202,15,mp-6440,8.99e-05,0.0448,0.0143,"(0.0168,0.034)",similar
diff. SGs,Fe1 S2,150428,54,mp-615366,174897,13,mp-850009,0.00115,0.0206,0.357,"(0.0287,0.0349)",similar
diff. SGs,Cl7 La1 Sr2,168934,4,mp-771879,165753,14,mp-771888,0.0401,0.0937,3.07,"(0.29,0.562)",different
diff. SGs,Ba2 Cl7 La1,169878,4,mp-773111,166561,14,mp-772955,0.0642,0.0552,1.69,"(0.294,0.53)",different
diff. SGs,Co3 Fe1 O8,166402,160,mp-771554,157049,166,mp-765922,0.0281,0.269,0.516,"(0.216,0.708)",different
diff. SGs,Ag1 Ge1 O3,174794,18,mp-779706,174792,26,mp-779664,0.00435,0.0157,0.584,"(0.0364,0.0477)",similar
same SGs,H3 Nd1 O3,150629,11,mp-625403,150985,11,mp-626369,0.000628,0.144,0.0342,,
same SGs,O4 Sr2 V1,85693,33,mp-554926,15274,33,mp-565780,0.0396,0.0012,1.31,,
same SGs,Ag3 As1 S3,85681,161,mp-555843,7455,161,mp-4431,0.0209,0.525,1.76,,
diff. SGs,Al1 Li2 Ni1 O4,160626,7,mp-769762,159683,20,mp-770084,0.0095,0.126,0.353,"(0.21,0.389)",different
diff. SGs,H3 O3 Tm1,150641,11,mp-625465,150648,176,mp-625472,0.00265,0.213,0.11,"(0.12,0.302)",different
diff. SGs,H5 N1 O2,150514,7,mp-625109,150513,14,mp-625108,0.00196,0.127,0.139,"(0.225,0.443)",different
diff. SGs,Bi2 O12 S3,167428,167,mp-768482,164300,148,mp-760109,0.0107,0.368,0.0484,"(0.206,0.322)",different
diff. SGs,H3 Nd1 O3,150629,11,mp-625403,150622,176,mp-625397,0.000405,0.0078,0.285,"(0.0281,0.0716)",similar
diff. SGs,H3 Nd1 O3,150622,176,mp-625397,150985,11,mp-626369,0.000223,0.152,0.251,"(0.169,0.299)",different
diff. SGs,Cu1 Nd2 O4,84923,12,mp-33916,12323,139,mp-4158,0.0402,0.707,0.291,"(0.0115,0.0209)",different
diff. SGs,Ag4 Mn3 O8,153021,1,mp-705778,46790,155,mp-556245,0.0194,0.0827,0.265,"(0.248,0.672)",different
diff. SGs,K1 O6 Os2,51139,160,mp-675028,2401,227,mp-4788,0.000398,0.0081,0.0269,"(0.0329,0.121)",similar
diff. SGs,C2 Ca1 H2 O4,5309,96,mp-560511,1177,92,mp-560210,0.000544,0.0354,0.217,"(0.0269,0.0367)",similar
diff. SGs,Al2 O12 W3,86586,18,mp-566398,43456,14,mp-556505,3.65e-05,0.0003,0.00897,"(0.0445,0.0912)",similar
diff. SGs,Al2 O12 W3,86586,18,mp-566398,11232,60,mp-19516,0.000165,0.0628,0.023,"(0.0329,0.0792)",similar
diff. SGs,Al2 O12 W3,43456,14,mp-556505,11232,60,mp-19516,0.000128,0.0625,0.014,"(0.0566,0.109)",similar
same SGs,O4 Sr1 U1,153816,12,mp-697836,151651,12,mp-634900,0.0816,2.07,0.175,,
diff. SGs,Li1 O12 P3 W2,162192,5,mp-763531,162106,167,mp-763372,0.0738,2.5,0.175,"(0.0844,0.335)",different
diff. SGs,Bi2 C1 O5,155771,42,mp-760411,24588,44,mp-30200,0.105,1.02,0.49,"(0.249,0.494)",different
diff. SGs,Br1 H5 O2,150689,1,mp-625578,150664,14,mp-625528,0.00148,4.1,0.318,"(0.21,0.575)",different
diff. SGs,Br1 H5 O2,150689,1,mp-625578,88409,14,mp-28014,0.0114,4.38,0.0531,"(0.142,0.507)",different
diff. SGs,Br1 H5 O2,150667,1,mp-625572,150664,14,mp-625528,0.0045,0.0659,0.00545,"(0.113,0.335)",similar
diff. SGs,Br1 H5 O2,150667,1,mp-625572,88409,14,mp-28014,0.00839,0.215,0.27,"(0.179,0.36)",different
diff. SGs,O2 Si1,35247,119,mp-644923,35248,44,mp-554946,0.005,0.0253,0.355,"(0.0923,0.195)",similar
diff. SGs,Co1 H2 O2,150825,5,mp-625953,88318,164,mp-25489,0.14,2.48,0.363,"(0.161,0.223)",different
diff. SGs,Ba1 H4 O3,151113,2,mp-626735,151098,11,mp-626726,0.000732,0.0471,0.201,"(0.045,0.0714)",similar
same SGs,Br1 H5 O2,150689,1,mp-625578,150667,1,mp-625572,0.00302,4.16,0.323,,
same SGs,Br1 H5 O2,150664,14,mp-625528,88409,14,mp-28014,0.0129,0.281,0.265,,
same SGs,Co1 H4 O5 Se1,88728,14,mp-541300,88726,14,mp-634660,0.0099,0.0026,0.0725,,
same SGs,H1 Mn1 O2,150958,62,mp-626314,108298,62,mp-626303,0.0442,0.752,0.0432,,
same SGs,Cu1 Mo1 O4,38746,2,mp-561371,38214,2,mp-652716,0.00383,0.159,0.313,,
same SGs,H5 N1 O1,150828,19,mp-625927,150827,19,mp-625924,0.0263,0.231,0.388,,
diff. SGs,Ba2 Ir1 La1 O6,84604,12,mp-15889,34051,148,mp-550081,0.00101,0,0.0214,"(0.097,0.174)",similar
diff. SGs,H2 Mn1 O2,151091,5,mp-626701,87685,164,mp-25546,0.0126,0.116,0.0768,"(0.172,0.228)",different
same SGs,C6 Co1 K3 N6,48207,14,mp-672349,45076,14,mp-6219,0.0245,0.071,1.33,,
diff. SGs,O7 Sm3 Ta1,159930,63,mp-755941,156857,20,mp-752686,0.0134,0.0485,0.188,"(0.158,0.345)",different
diff. SGs,Nb1 O7 Sm3,160591,20,mp-756591,159895,63,mp-755901,0.0167,0.118,0.214,"(0.163,0.362)",different
diff. SGs,Li2 Mo1 O3,152407,2,mp-694855,52621,12,mp-35975,0.0283,0.24,0.00566,"(0.0631,0.101)",different
diff. SGs,La3 Li5 Nb2 O12,170397,9,mp-774721,164943,1,mp-761986,0.0011,0.0625,0.00866,"(0.148,1.08)",similar
diff. SGs,Ba1 C2 Ca1 O6,84620,11,mp-6568,35255,4,mp-644852,0.0265,0.0651,0.907,"(0.274,0.389)",different
diff. SGs,H8 N2 O4 S1,88300,33,mp-24468,87854,62,mp-23876,0.00739,0.0856,0.104,"(0.283,0.463)",similar
same SGs,Co2 Li3 O12 P3,169318,14,mp-774352,48933,14,mp-31595,0.00798,0.19,0.0282,,
same SGs,Fe1 O3 Si1,34850,15,mp-510602,9069,15,mp-566207,0.000224,0.615,0.0513,,
diff. SGs,Al1 F7 Mg1 Na2,85450,46,mp-19931,18264,74,mp-6319,0.00192,0.0138,0.00405,"(0.0287,0.0891)",similar
diff. SGs,C1 H4 N2 S1,94816,26,mp-721896,88618,62,mp-23930,0.00623,0.332,1.25,"(0.16,0.352)",different
diff. SGs,Al4 Ba1 Na2 O16 Si4,153060,9,mp-686310,34590,45,mp-6875,0.0023,0.023,0.111,"(0.0214,0.0428)",similar
diff. SGs,O2 Si1,34374,154,mp-549166,1799,152,mp-7000,0.00127,0.0122,0.268,"(0.194,0.289)",similar
same SGs,O2 Si1,34374,154,mp-549166,1800,154,mp-6930,0.000938,0.0012,0.254,,
diff. SGs,P1 Se3 Sn1,28424,14,mp-5706,18218,7,mp-570370,0.00315,0.195,0.108,"(0.0424,0.0912)",different
diff. SGs,Ba1 Mn2 O6 Y1,84738,13,mp-18739,34183,12,mp-565380,0.00674,0,0.0157,"(0.0596,0.111)",similar
diff. SGs,Al3 F19 Pb5,25178,140,mp-557911,22068,2,mp-558703,0.0152,0.305,0.237,"(0.173,0.285)",different
diff. SGs,Al3 F19 Pb5,25178,140,mp-557911,17844,108,mp-541732,0.0201,0.323,0.0155,"(0.212,0.308)",different
diff. SGs,Al3 F19 Pb5,25178,140,mp-557911,15125,87,mp-558775,0.0125,0.196,0.27,"(0.169,0.275)",different
diff. SGs,Al3 F19 Pb5,22068,2,mp-558703,17844,108,mp-541732,0.00484,0.0173,0.252,"(0.273,0.569)",similar
diff. SGs,Al3 F19 Pb5,22068,2,mp-558703,15125,87,mp-558775,0.00274,0.109,0.0328,"(0.0546,0.147)",different
diff. SGs,Al3 F19 Pb5,17844,108,mp-541732,15125,87,mp-558775,0.00758,0.126,0.285,"(0.272,0.564)",different
same SGs,Bi2 O6 U1,85022,164,mp-27775,87116,164,mp-548598,0.0397,0.26,0.0761,,
same SGs,Ca1 H8 N2 O10,165257,14,mp-762501,86636,14,mp-559136,0.00474,0.0032,0.0775,,
diff. SGs,Gd3 O7 Ta1,172337,63,mp-779249,168307,20,mp-769809,0.0157,0.0182,0.117,"(0.169,0.37)",different
diff. SGs,O4 Pb3,31811,135,mp-22633,19934,55,mp-21452,0.00041,0.0253,0.0143,"(0.0179,0.0283)",similar
diff. SGs,Co1 O6 Sr2 W1,35572,87,mp-18771,34397,225,mp-561559,0.00623,0.0332,0.0916,"(0.075,0.116)",similar
diff. SGs,Al1 N1,4923,194,mp-13178,616,186,mp-661,0.115,0.789,0.686,"(0.119,0.119)",different
diff. SGs,Ga1 La1 O3,86284,74,mp-556983,1760,167,mp-3336,0.000635,0.182,0.00545,"(0.0766,0.113)",different
same SGs,Cu1 Se1,24576,194,mp-568998,24575,194,mp-582060,0.00782,0,0.517,,
same SGs,Cr1 Cu1 O2,174841,166,mp-795616,174598,166,mp-773929,3.75e-09,0,1.84e-07,,
same SGs,Cr1 Cu1 O2,174841,166,mp-795616,3091,166,mp-510625,0.000749,0.0123,0.0206,,
same SGs,Cr1 Cu1 O2,174598,166,mp-773929,3091,166,mp-510625,0.000749,0.0123,0.0206,,
diff. SGs,Au1 Te2,14861,164,mp-1662,1202,12,mp-567525,0.00107,0,0.0246,"(0.0462,0.0566)",similar
diff. SGs,Cu1 Se1,16492,194,mp-488,15705,63,mp-571486,0.000555,0,0.0351,"(0.0494,0.0863)",similar
diff. SGs,Ag7 N1 O11,53819,42,mp-37695,51140,160,mp-34787,0.00517,0.0184,0.0943,"(0.172,0.479)",similar
diff. SGs,Na3 O12 W4,54215,71,mp-38257,51884,229,mp-35005,0.00111,0.0053,0.0982,"(0.0537,0.0675)",similar
diff. SGs,F6 K1 Rb2 Sc1,15452,225,mp-9349,15451,87,mp-9348,0.00928,0.14,0.222,"(0.0509,0.0804)",different
diff. SGs,Mn7 O15 Pb3,36942,63,mp-649813,10838,193,mp-585548,0.00137,0,0.0862,"(0.0217,0.0473)",similar
same SGs,Ni1 O1,154119,225,mp-715434,2977,225,mp-19009,0.0409,0.18,0.103,,
diff. SGs,F3 K1 Mn1,110102,11,mp-644332,7883,62,mp-558046,0.00159,0.0936,0.122,"(0.18,0.355)",similar
diff. SGs,F3 K1 Mn1,14287,140,mp-555359,8510,221,mp-555123,0.002,0.117,0.113,"(0.0182,0.0265)",different
same SGs,Li3 O12 P3 Sc2,169689,14,mp-774742,16907,14,mp-6565,0.00118,0.165,0.00778,,
diff. SGs,Ba2 Bi1 O6 Ta1,34198,225,mp-552200,1711,12,mp-545544,0.0143,0.138,0.135,"(0.0963,0.144)",different
diff. SGs,Ba2 Bi1 O6 Ta1,34198,225,mp-552200,1710,148,mp-23092,0.014,0.0904,0.148,"(0.0803,0.104)",different
diff. SGs,Ba2 Bi1 O6 Ta1,1711,12,mp-545544,1710,148,mp-23092,0.00028,0.0471,0.013,"(0.0558,0.09)",similar
diff. SGs,Ba2 La1 O6 Ru1,85471,12,mp-554410,2420,148,mp-12911,0.000161,0.0476,0.00239,"(0.0472,0.086)",similar
diff. SGs,Cl3 Cs1 Pb1,51128,155,mp-675022,3374,221,mp-23037,0.0034,0.121,0.0368,"(0.126,0.162)",different
diff. SGs,Cl4 Rb2 Zn1,12061,33,mp-616185,8330,62,mp-608314,0.000461,0.0275,0.166,"(0.0175,0.0371)",similar
same SGs,H2 K2 O7 P2,100834,2,mp-721217,94412,2,mp-721463,0.0219,0.335,0.307,,
same SGs,Se2 Si1,47125,72,mp-568313,7572,72,mp-568264,0.699,0.3,4.36,,
same SGs,O9 P3 V1,165769,19,mp-767740,49060,19,mp-32443,0.0106,0.0542,0.336,,
same SGs,Hg1 S1,16580,152,mp-634,9074,152,mp-558819,0.163,1.71,5.38,,
same SGs,Li1 O12 Sb1 Te3,170435,1,mp-774910,163406,1,mp-759207,0.000308,0.0831,0.0453,,
same SGs,Li3 O12 P3 W2,173320,14,mp-850104,170904,14,mp-776637,0.00387,0.0362,0.098,,
diff. SGs,O1 Sn1,87153,31,mp-545552,86987,64,mp-545820,0.0717,0.872,1.42,"(0.252,0.294)",different
diff. SGs,O1 Sn1,87153,31,mp-545552,7249,129,mp-2097,0.0727,0.998,1.74,"(0.253,0.292)",different
diff. SGs,O1 Sn1,86987,64,mp-545820,7249,129,mp-2097,0.00099,0.126,0.327,"(0.0131,0.019)",different
diff. SGs,Hg1 S1,14936,154,mp-9252,16580,152,mp-634,6.09e-05,0.0205,0.119,"(0.0661,0.0924)",similar
diff. SGs,Hg1 S1,14936,154,mp-9252,9074,152,mp-558819,0.163,1.69,5.26,"(0.17,0.228)",different
diff. SGs,Ba1 Ce1 O3,14655,74,mp-3316,39588,167,mp-4900,0.00152,0.0167,0.0109,"(0.0639,0.0977)",similar
diff. SGs,O4 Se1 Tl2,46482,19,mp-559961,6082,62,mp-4449,0.00106,0.081,0.0215,"(0.129,0.223)",similar
diff. SGs,O5 Ti3,45094,12,mp-556480,26301,63,mp-8057,0.00863,0.0003,0.0904,"(0.0317,0.043)",similar
diff. SGs,K1 Nb1 O3,9712,160,mp-7375,9706,38,mp-5246,8.43e-05,0.235,0.0258,"(0.0225,0.0367)",different
diff. SGs,K1 Nb1 O3,9712,160,mp-7375,9702,99,mp-4342,0.00207,0.817,0.0105,"(0.0317,0.0528)",different
diff. SGs,K1 Nb1 O3,9706,38,mp-5246,9702,99,mp-4342,0.00198,0.583,0.0154,"(0.0253,0.0413)",different
diff. SGs,Bi2 Mo1 O6,42409,61,mp-567075,38007,29,mp-25708,0.0444,1.54,0.787,"(0.121,0.277)",different
diff. SGs,O1 Pb1,46539,57,mp-672237,9128,29,mp-550714,0.0213,0.695,1.51,,different
diff. SGs,Ba1 Si2,24041,191,mp-7701,21994,164,mp-7655,0.0191,0.0524,0.415,"(0.0952,0.117)",different
diff. SGs,Ba1 S3 V1,34204,8,mp-542818,10410,20,mp-555857,0.00278,0.0063,0.0413,,similar
diff. SGs,Ba1 S3 V1,34204,8,mp-542818,1993,36,mp-3451,0.00069,0.0063,0.0317,,similar
diff. SGs,Ba1 S3 V1,34204,8,mp-542818,1992,194,mp-4227,0.0132,0.0063,0.0876,,different
diff. SGs,Ba1 S3 V1,10410,20,mp-555857,1993,36,mp-3451,0.00347,0,0.0731,"(0.0465,0.071)",similar
diff. SGs,Ba1 S3 V1,10410,20,mp-555857,1992,194,mp-4227,0.0104,0,0.129,"(0.0227,0.0289)",different
diff. SGs,Ba1 S3 V1,1993,36,mp-3451,1992,194,mp-4227,0.0139,0,0.0559,"(0.0459,0.0938)",different
diff. SGs,Cu1 Ge1 Yb1,29815,186,mp-567768,5768,194,mp-5111,0.000989,0,0.0215,"(0.0689,0.0889)",similar
diff. SGs,Cd1 O6 Sr2 W1,84794,59,mp-18888,5628,14,mp-19014,0.0782,0.107,0.444,"(0.182,0.275)",different
diff. SGs,Cd1 O6 Sr2 W1,35621,87,mp-18757,13387,225,mp-18903,0.0577,0.221,0.302,"(0.0921,0.146)",different
diff. SGs,Mn1 O3 Tl1,166407,62,mp-770870,157771,14,mp-769883,0.00952,0.0423,0.117,"(0.185,0.387)",similar
diff. SGs,Ba2 F7 Y1,171476,14,mp-777744,167273,4,mp-768350,0.0652,0.14,0.745,"(0.266,0.477)",different
diff. SGs,La1 N1 O2 Ti1,168881,1,mp-776435,171326,4,mp-775918,0.00663,0.0869,0.0182,"(0.171,0.3)",similar
diff. SGs,Cl1 H7 O3,150518,1,mp-625171,150517,9,mp-625145,0.00768,0.0603,0.279,"(0.154,0.45)",similar
same SGs,C4 Co2 Li3 O12,157340,1,mp-767064,156577,1,mp-762394,0.0205,0.76,0.339,,
diff. SGs,Er5 Si4,34572,62,mp-568446,34358,14,mp-775,0.00083,0,0.108,"(0.087,0.166)",similar
same SGs,H1 Nb1 O3,151023,1,mp-626528,151021,1,mp-626538,0.00302,0.0015,0.0536,,
same SGs,H1 Nb1 O3,151023,1,mp-626528,151024,1,mp-626536,0.0307,2.52,0.0936,,
same SGs,H1 Nb1 O3,151021,1,mp-626538,151024,1,mp-626536,0.0338,2.52,0.04,,
same SGs,F1 Li2 O4 P1 W1,88128,1,mp-632990,87781,1,mp-25728,0.00314,0.037,0.0837,,
same SGs,H3 N1 O3 S1,161913,61,mp-757595,88828,61,mp-721279,0.0611,0.341,0.561,,
same SGs,H3 N1 O3 S1,88828,61,mp-721279,3036,61,mp-603327,0.00759,0.215,0.462,,
diff. SGs,Na2 O7 P2 Zn1,56358,14,mp-40963,22021,136,mp-6491,0.00342,0.0065,0.164,"(0.0442,0.152)",similar
diff. SGs,C2 Li2 Ni1 O6,165968,1,mp-767744,156643,43,mp-763387,0.0272,0.166,0.296,"(0.171,0.412)",different
diff. SGs,Ba1 Nb2 O6,34160,51,mp-640553,8723,14,mp-28150,0.0374,0.944,0.18,"(0.282,0.536)",different
diff. SGs,Cu2 O3 Sr1,84630,59,mp-3255,6949,65,mp-5938,0.00055,0,0.00181,"(0.0203,0.0288)",similar
diff. SGs,Ag10 Br3 Te4,32421,36,mp-568386,32420,63,mp-568392,0.00211,0.0464,0.0776,"(0.0829,0.178)",similar
diff. SGs,F2 Mn1,44097,60,mp-556585,12075,111,mp-615152,0.0425,0.513,1.33,"(0.295,0.434)",different
same SGs,B1 H1 O2,95482,62,mp-722202,91098,62,mp-696403,0.0484,0.391,1.28,,
same SGs,Ca1 I5 La1,167272,63,mp-772082,159748,63,mp-755779,0.0466,0.0319,3.79,,
diff. SGs,H1 In1 O2,92257,58,mp-632711,88787,31,mp-504535,0.0117,1.73,0.176,"(0.0488,0.0876)",different
diff. SGs,Mo3 O8 Sc1,151517,5,mp-632694,88327,1,mp-25572,0.00987,0.158,0.0529,"(0.0082,0.0183)",different
diff. SGs,F6 Fe1 Zr1,8353,148,mp-608338,8347,225,mp-554971,0.0319,0.0423,0.813,"(0.145,0.167)",different
same SGs,H1 Lu1 O2,150589,4,mp-625367,150588,4,mp-625370,0.00494,0.19,0.016,,
same SGs,P1 Se4 Tl3,150425,62,mp-614491,9376,62,mp-4160,0.0183,0.115,2.46,,