category,composition,snlgroup_id 1,sg_num 1,task_id 1,snlgroup_id 2,sg_num 2,task_id 2,delta_energy,delta_bandgap,delta_volume_per_atom,rms_dist,scenario
diff. SGs,Er3 O7 Ta1,160398,63,mp-756160,160225,20,mp-755898,0.0297,0.083,0.0729,"(0.158,0.375)",different
diff. SGs,Bi1 O6 Pb2 V1,43811,7,mp-704114,33939,14,mp-640883,0.00138,0.0468,0.0868,"(0.0875,0.21)",similar
diff. SGs,H2 O4 Se1,150855,4,mp-626024,88346,19,mp-23866,0.00245,0.0047,0.215,"(0.0592,0.0922)",similar
diff. SGs,Hg3 O6 S1,36190,152,mp-560316,27764,144,mp-30890,0.000924,0.0149,0.126,"(0.122,0.228)",similar
diff. SGs,Co3 Li2 O6,162525,9,mp-763622,53574,2,mp-705847,0.0314,0.736,0.164,"(0.279,0.619)",different
diff. SGs,P2 Zn1,26229,92,mp-2782,24984,96,mp-11025,4.36e-06,0.0003,0.0015,"(0.00484,0.00677)",similar
same SGs,S1 Zn1,41735,-1,mp-554820,36043,-1,mp-554503,0.000188,0.0005,0.00503,,
same SGs,S1 Zn1,41735,-1,mp-554820,36042,-1,mp-554961,0.000188,0.0033,0.00493,,
same SGs,S1 Zn1,41735,-1,mp-554820,36041,-1,mp-555079,4.11e-07,0.0006,0.00263,,
diff. SGs,C4 Cd1 N6,46110,58,mp-11646,28150,14,mp-636559,0.00571,0.0056,0.821,"(0.0896,0.138)",similar
diff. SGs,Al1 F6 Na3,54292,148,mp-676512,39681,71,mp-5468,0.0471,0.666,0.501,"(0.177,0.249)",different
diff. SGs,As1 Ni1,12104,36,mp-590,6382,194,mp-2346,0.000861,0,0.02,"(0.0158,0.0183)",similar
diff. SGs,H3 O3 Pr1,150639,176,mp-625447,150636,6,mp-625452,0.00203,0.0667,0.26,"(0.0916,0.272)",similar
diff. SGs,H3 O3 Pr1,150639,176,mp-625447,150984,11,mp-626361,0.00154,0.102,0.158,"(0.168,0.298)",different
diff. SGs,H3 O3 Pr1,150636,6,mp-625452,150984,11,mp-626361,0.00049,0.0348,0.103,"(0.105,0.217)",similar
diff. SGs,C2 Ga1 H20 N1 O14 S2,85796,7,mp-554951,85909,4,mp-556589,0.00401,0.235,0.313,"(0.223,0.723)",different
diff. SGs,Fe1 Na1 O2,8737,92,mp-24974,1265,33,mp-24939,0.00892,0.0316,0.308,"(0.235,0.518)",similar
diff. SGs,K2 O5 Os1,164856,174,mp-762088,152976,1,mp-685249,0.00704,0.291,0.534,"(0.129,0.467)",different
same SGs,F2 I1 K1 O2,156469,29,mp-753054,1408,29,mp-558861,0.0387,0.253,0.633,,
same SGs,B4 La1 O12 Sc3,33834,155,mp-10348,21073,155,mp-556530,0.0977,0.203,0.0169,,
diff. SGs,Fe2 O12 P3,49533,148,mp-25661,49391,167,mp-540329,0.000606,0.0094,0.641,"(0.17,0.252)",similar
diff. SGs,B4 La1 O12 Sc3,40170,15,mp-6217,21072,9,mp-554815,0.000294,0.003,0.00643,"(0.0307,0.0476)",similar
diff. SGs,Co1 La2 O4,85255,139,mp-561684,16200,64,mp-540693,0.0667,0.175,0.7,"(0.0589,0.114)",different
diff. SGs,Au1 Mg3,44806,165,mp-1557,6752,185,mp-17783,0.000231,0.0072,0.0221,"(0.0792,0.131)",similar
diff. SGs,Nb2 O12 Pb4 Ti1 Zn1,152873,1,mp-684723,152872,8,mp-684721,0.0074,0.111,0.0604,"(0.0634,0.225)",different
diff. SGs,Ba2 La1 O6 Ta1,3712,148,mp-13056,3707,12,mp-13055,0.000415,0.004,0.00412,"(0.0597,0.0944)",similar
same SGs,Ca2 H2 O9 S2,106139,5,mp-733656,104059,5,mp-696075,0.0546,0.561,0.278,,
same SGs,Ca2 H2 O9 S2,106139,5,mp-733656,102760,5,mp-698074,0.00248,0.0221,0.0914,,
same SGs,Cu3 P1,40781,165,mp-359,48420,165,mp-14012,0.0457,0.138,0.0863,,
same SGs,Fe2 Na3 O12 P3,163957,14,mp-764132,164672,14,mp-764128,0.00132,0.0163,0.111,,
diff. SGs,Ba3 Na1 O9 Ru2,86120,51,mp-555258,43832,194,mp-542123,0.000384,0.0627,0.0821,"(0.0334,0.0576)",similar
diff. SGs,C2 Cl4 H12 Mn1 N2,407,138,mp-569124,405,56,mp-600219,0.00141,0.0208,0.116,"(0.0531,0.0899)",similar
diff. SGs,B2 Cu2 O6 Sr1,43937,140,mp-558472,15271,121,mp-6602,0.00379,0.0587,0.0629,"(0.0594,0.11)",similar
diff. SGs,Al1 K1 O8 S2,42591,150,mp-669367,84824,164,mp-7645,0.0118,0.0296,0.11,"(0.14,0.197)",different
diff. SGs,Cu3 P1,40781,165,mp-359,13190,185,mp-7463,0.0465,0.114,0.0528,"(0.26,0.477)",different
diff. SGs,Cu3 P1,48420,165,mp-14012,13190,185,mp-7463,0.000768,0.0246,0.0336,"(0.0786,0.148)",similar
diff. SGs,Cr1 O4 W1,85053,69,mp-609356,84826,65,mp-18785,0.0551,1.67,0.0738,,different
diff. SGs,Cr1 O4 W1,85053,69,mp-609356,8537,12,mp-608594,0.0343,0,0.104,"(0.0152,0.0221)",different
diff. SGs,Cr1 O4 W1,84826,65,mp-18785,8537,12,mp-608594,0.0894,1.67,0.178,,different
diff. SGs,Cr2 Ni1 O4,16191,227,mp-19303,9129,141,mp-19344,0.166,2.43,0.0792,"(0.0196,0.026)",different
diff. SGs,Ga1 Mn1 Ni2,2361,225,mp-20228,1748,139,mp-601285,7.14e-05,0.034,0.0374,"(4.29e-16,6.89e-16)",similar
diff. SGs,H2 O5 Si2,150833,5,mp-626037,150835,9,mp-626083,0.0106,0.166,0.172,"(0.178,0.429)",different
diff. SGs,Cl2 Co1,153478,164,mp-696114,151490,12,mp-632413,0.00879,0.789,0.27,"(0.00764,0.00936)",different
diff. SGs,I1 Na1 O4,152090,1,mp-662702,38771,88,mp-27401,0.312,1.86,0.663,"(0.28,0.416)",different
same SGs,Al2 Cl8 Sr1,43442,61,mp-30024,43437,61,mp-568995,3.9e-05,0.0111,0.284,,
diff. SGs,Br4 K2 Zn1,14253,4,mp-23535,14252,11,mp-23495,0.000954,0.185,0.301,"(0.0244,0.0349)",different
diff. SGs,O3 Pb1 Ti1,4145,99,mp-20459,1788,221,mp-19845,0.0391,0.232,1.24,"(0.0862,0.134)",different
diff. SGs,Mg1 Mo6 Se8,52982,2,mp-675833,52714,1,mp-675743,0.00256,0,0.0609,"(0.0564,0.214)",similar
diff. SGs,B3 Ca1 H5 O8,105109,14,mp-705495,87247,4,mp-560899,0.00445,0.0672,0.0061,"(0.128,0.663)",similar
diff. SGs,F6 S1,38106,164,mp-8652,101017,2,mp-642824,0.00385,0.0705,0.908,"(0.259,0.359)",similar
diff. SGs,F6 S1,38106,164,mp-8652,10462,12,mp-975,0.00112,0.0223,0.00624,"(0.245,0.341)",similar
diff. SGs,F6 S1,101017,2,mp-642824,10462,12,mp-975,0.00497,0.0482,0.901,"(0.0467,0.0926)",similar
diff. SGs,O8 Pb3 V2,12406,5,mp-25142,12405,166,mp-25110,0.0295,0.073,0.996,"(0.16,0.264)",different
diff. SGs,Br3 Cs1 Ge1,151759,8,mp-642739,15190,221,mp-570223,0.0129,1.4,2.98,"(0.0549,0.0841)",different
diff. SGs,Cu1 O6 Sb2,85575,58,mp-554658,16275,136,mp-5831,0.000821,0,0.00764,"(0.017,0.0271)",similar
diff. SGs,Ca2 Fe1 O6 W1,85066,44,mp-541519,150439,166,mp-619611,0.0403,0.761,0.293,"(0.0313,0.0581)",different
diff. SGs,Ca2 Fe1 O6 W1,85066,44,mp-541519,15493,225,mp-19059,0.013,1.65,0.371,"(0.0109,0.014)",different
diff. SGs,Ca2 Fe1 O6 W1,150439,166,mp-619611,15493,225,mp-19059,0.0273,0.889,0.0777,"(0.031,0.0585)",different
diff. SGs,Cd1 Cs1 N3 O6,22577,146,mp-6628,2573,200,mp-22378,1.01,2.44,4.99,"(0.179,0.241)",different
diff. SGs,H3 O3 Y1,150735,11,mp-625718,150721,173,mp-625677,0.00248,0.0448,0.153,"(0.199,0.294)",similar
diff. SGs,H3 O3 Y1,150735,11,mp-625718,88390,176,mp-24076,0.00359,0.113,0.117,"(0.0785,0.15)",different
diff. SGs,H3 O3 Y1,150721,173,mp-625677,88390,176,mp-24076,0.00111,0.158,0.0351,"(0.226,0.302)",different
diff. SGs,Ce1 F3,10605,182,mp-22070,2424,165,mp-510560,0.145,0.17,0.412,"(0.231,0.505)",different
same SGs,Ba3 Ge1 O5,168597,160,mp-770959,160611,160,mp-756637,0.00845,0.0565,0.138,,
diff. SGs,Ba1 O5 Ti2,28056,5,mp-555966,1742,12,mp-3943,0.00302,0.316,0.026,"(0.0262,0.0674)",different
diff. SGs,Co2 O7 P2,85683,2,mp-559953,13965,12,mp-24860,0.00325,0.055,0.013,"(0.0223,0.029)",similar
diff. SGs,Ca1 Mo1 O6 Sr2,84584,59,mp-19100,29819,14,mp-19116,0.065,0.302,0.537,"(0.187,0.276)",different
diff. SGs,O2 Si1,1800,154,mp-6930,1799,152,mp-7000,0.000335,0.0134,0.0138,"(3.27e-16,4.54e-16)",similar
diff. SGs,O2 Si1,1800,154,mp-6930,4410,180,mp-6922,0.00172,0.175,0.669,"(0.142,0.168)",different
diff. SGs,K2 O7 Zn6,86346,136,mp-540728,19843,102,mp-559112,0.000982,0.0273,0.0203,"(0.0594,0.152)",similar
diff. SGs,Br6 K2 Sn1,36797,14,mp-574040,154535,128,mp-707190,0.00463,0.03,0.332,"(0.0912,0.111)",similar
diff. SGs,C2 Cd1 N2,51626,102,mp-34656,12821,215,mp-4077,0.0076,0.0909,0.034,"(0.25,0.411)",similar
diff. SGs,Ca1 Ge2 O5,85643,2,mp-554678,33904,15,mp-3707,0.000226,0.248,0.0634,"(0.0421,0.0678)",different
diff. SGs,Cr2 S3,40646,163,mp-13685,174880,143,mp-849083,0.0132,0.13,0.916,"(0.0254,0.0484)",different
diff. SGs,Cr2 S3,174879,146,mp-849081,16869,148,mp-555569,0.0351,0.42,0.0455,"(0.0254,0.0448)",different
diff. SGs,N6 Pb1,39653,62,mp-667338,17222,33,mp-620058,0.000372,0.0055,0.185,"(0.0811,0.224)",similar
diff. SGs,In1 Pd3,86186,221,mp-31337,31311,123,mp-510436,0.00065,0.0103,0.0217,"(0,0)",similar
diff. SGs,B2 K3 Nb3 O12,40396,189,mp-15248,16146,157,mp-558828,0.00362,0.425,0.149,"(0.0217,0.0352)",different
diff. SGs,Cl3 Cu1 Rb1,43460,15,mp-568857,39494,5,mp-571305,0.00103,0.0001,0.121,"(0.0494,0.0698)",similar
same SGs,Ge3 Nb5,20098,140,mp-16842,8110,140,mp-569891,0.278,0,0.41,,
same SGs,B2 Ba2 O5,168728,14,mp-771174,167319,14,mp-768345,0.0046,0.309,0.0508,,
same SGs,C8 Co1 H32 N2 O10 S4,96594,14,mp-600523,152038,14,mp-656153,0.141,1.87,0.997,,
diff. SGs,H3 Li1 O2,150559,2,mp-625211,88271,12,mp-27281,0.000483,0.334,0.0264,"(0.138,0.232)",different
diff. SGs,Ga1 Mo4 S8,3202,160,mp-559694,3200,216,mp-2885,1.95e-05,0.032,0.0214,"(0.0129,0.0273)",similar
diff. SGs,C6 Cr1 K3 N6,35563,60,mp-645346,22542,14,mp-568773,0.00145,0.0706,0.404,"(0.0956,0.152)",similar
diff. SGs,O3 Sn1 Sr1,1825,140,mp-12867,1824,74,mp-12866,0.00552,0.0568,0.0278,"(0.0527,0.0847)",similar
diff. SGs,C2 N2 Zn1,52460,102,mp-35751,12820,215,mp-5245,0.0013,0.134,0.0936,"(0.27,0.446)",different
diff. SGs,Cu1 F6 Zr1,7627,2,mp-560865,7626,148,mp-8096,0.000643,0.0286,0.0589,"(0.102,0.152)",similar
diff. SGs,Ag1 N1 O3,32304,61,mp-638686,43422,19,mp-669466,0.00268,0.0074,0.163,"(0.0576,0.118)",similar
same SGs,Ni7 O24 P6,86199,12,mp-32385,154268,12,mp-704235,0.0508,0.01,0.287,,
diff. SGs,As1 Nd1 Pd1,13049,186,mp-8950,13048,194,mp-8949,0.000792,0,0.044,"(0.0165,0.0205)",similar
diff. SGs,Co1 Mo1 O6 Sr2,1827,87,mp-18805,86611,139,mp-560723,0.0834,0.262,0.286,"(0.0683,0.107)",different
diff. SGs,Co1 Mo1 O6 Sr2,1827,87,mp-18805,1826,225,mp-510546,0.0715,1.05,0.0979,"(0.0657,0.104)",different
diff. SGs,Co1 Mo1 O6 Sr2,86611,139,mp-560723,1826,225,mp-510546,0.0119,0.793,0.189,"(0.0223,0.0322)",different
same SGs,H6 Mn1 O6 S1,107608,19,mp-735543,5275,19,mp-566645,0.0412,0.136,0.545,,
same SGs,Cr8 O21,154845,2,mp-716066,38866,2,mp-565489,0.00536,1.68,0.0238,,
diff. SGs,H12 Ni1 O10 S1,102779,96,mp-743594,3269,92,mp-578721,0.00138,0.0732,0.0777,"(0.0079,0.0163)",similar
diff. SGs,Ce2 O2 Sb1,152962,12,mp-685137,8828,139,mp-20356,0.0352,0.0002,0.313,"(0.0112,0.0174)",different
diff. SGs,Rb2 Te1,36113,62,mp-568745,36110,194,mp-383,0.000367,0.0007,0.11,"(0.0161,0.0233)",similar
diff. SGs,Ba1 Mn2 O6 Tb1,86457,51,mp-566190,1928,65,mp-565720,0.00841,0,0.0249,"(0.0687,0.129)",similar
diff. SGs,Ba2 O6 Sr1 W1,6050,148,mp-19078,5584,12,mp-18764,0.000724,0.103,0.0103,"(0.126,0.219)",different
diff. SGs,F3 Nd1,85304,193,mp-18074,37867,185,mp-18511,0.171,2.22,0.285,"(0.183,0.487)",different
diff. SGs,F3 Nd1,85304,193,mp-18074,34416,165,mp-254,0.173,2.17,0.296,"(0.18,0.499)",different
diff. SGs,F3 Nd1,37867,185,mp-18511,34416,165,mp-254,0.0012,0.0516,0.0107,"(0.0671,0.112)",similar
diff. SGs,H2 La1 Na1 O9 S2,84993,144,mp-677384,3179,152,mp-557508,0.0637,0.04,0.407,"(0.0896,0.145)",different
diff. SGs,Fe4 S5,174905,3,mp-850249,155022,75,mp-850083,0.000427,0.0312,0.118,"(0.00321,0.00576)",similar
same SGs,O8 S2 Ti1,170206,146,mp-775149,169438,146,mp-772410,0.00488,0.0701,0.0927,,
same SGs,O8 S2 V1,169515,146,mp-773973,168695,146,mp-771598,0.0063,0.0978,0.155,,
same SGs,B2 Li3 Ni1 O6,168509,2,mp-770880,168327,2,mp-770876,0.0155,0.0649,0.51,,
same SGs,B1 Bi1 Li2 O4,167798,62,mp-768731,166540,62,mp-768292,0.00539,0.31,0.143,,
same SGs,Cr1 O8 S2,169593,146,mp-773979,161741,146,mp-765763,0.00518,0.0082,0.287,,
same SGs,B2 Co1 Li3 O6,160653,2,mp-778571,160542,2,mp-769782,0.00448,0.0233,0.275,,
same SGs,Li3 Ni2 O8 Si2,172408,7,mp-780288,172068,7,mp-779266,0.00392,0.0432,0.0374,,
diff. SGs,O7 Sb1 Tb3,167808,63,mp-768766,159492,20,mp-755277,0.0224,0.248,0.167,"(0.17,0.414)",different
diff. SGs,Nb1 O7 Tb3,160112,63,mp-756135,158663,20,mp-754415,0.0253,0.0063,0.226,"(0.171,0.394)",different
diff. SGs,O2 Si1,16489,9,mp-555235,4416,194,mp-7087,0.00829,0.139,1.28,"(0.154,0.26)",different
diff. SGs,O2 Si1,16489,9,mp-555235,37269,40,mp-554573,0.0019,0.112,0.252,"(0.155,0.309)",different
diff. SGs,O2 Si1,16489,9,mp-555235,35277,4,mp-555891,0.00438,0.116,0.681,"(0.114,0.19)",different
diff. SGs,O2 Si1,16489,9,mp-555235,7485,182,mp-559091,0.000992,0.0657,0.256,"(0.198,0.41)",similar
diff. SGs,O13 V7,85828,2,mp-556332,85441,1,mp-715598,0.00746,0.0306,0.00835,"(0.0267,0.0716)",similar
diff. SGs,H1 O2 V1,151130,62,mp-626796,151129,26,mp-626791,0.00494,0.0303,0.112,"(0.121,0.32)",similar
diff. SGs,H1 O2 V1,151129,26,mp-626791,151126,62,mp-626787,0.00365,0.0421,0.045,"(0.121,0.32)",similar
diff. SGs,H2 O8 V3,151140,14,mp-626872,151138,33,mp-626879,0.0193,0.0091,0.319,"(0.177,0.713)",different
diff. SGs,H1 Mo2 O6,150862,6,mp-626087,150860,1,mp-626138,0.00495,0,0.245,"(0.106,0.3)",similar
diff. SGs,H1 Mo2 O6,150862,6,mp-626087,150859,8,mp-626110,0.0117,0,0.109,"(0.153,0.434)",different
diff. SGs,H1 Mo2 O6,150860,1,mp-626138,150859,8,mp-626110,0.0166,0,0.355,"(0.128,0.363)",different
diff. SGs,Fe4 H14 O13,151118,1,mp-626855,151116,2,mp-626827,0.0354,0.0099,0.0469,"(0.237,0.714)",different
diff. SGs,Br1 H7 O3,150670,9,mp-625555,150668,1,mp-625583,0.00255,0.137,0.0246,"(0.251,0.683)",different
diff. SGs,Br1 H7 O3,150669,9,mp-625560,150668,1,mp-625583,0.0157,0.105,0.382,"(0.256,0.684)",different
diff. SGs,Fe4 H14 O13,151116,2,mp-626827,151117,1,mp-626851,0.0102,0.0151,0.0401,"(0.206,0.756)",different
diff. SGs,O17 V9,154915,1,mp-716723,86817,2,mp-565758,0.011,0.102,0.0222,"(0.0236,0.0543)",different
diff. SGs,Ba1 Mo6 S8,11684,148,mp-3835,11683,2,mp-5716,0.00219,0.0031,0.133,"(0.014,0.0278)",similar
same SGs,H1 O2 V1,151130,62,mp-626796,151126,62,mp-626787,0.00859,0.0724,0.157,,
same SGs,Fe4 H14 O13,151118,1,mp-626855,151117,1,mp-626851,0.0252,0.025,0.0869,,
same SGs,Ru3 Si5 Sm2,110534,128,mp-697708,85446,128,mp-505681,0.285,0.073,0.686,,
diff. SGs,Bi1 O5 Pb1 V1,9813,1,mp-566459,6030,2,mp-510666,0.00157,0.0312,0.0589,"(0.0593,0.12)",similar
diff. SGs,Bi1 O5 Pb1 V1,6031,12,mp-542975,6030,2,mp-510666,0.0186,0.388,0.637,"(0.0949,0.155)",different
same SGs,Cu1 O9 P3,165912,19,mp-766254,49763,19,mp-540496,0.00808,0.159,0.576,,
diff. SGs,O1 V1,154252,166,mp-714885,2550,225,mp-19184,0.124,0.319,0.45,"(5.29e-05,5.29e-05)",different
same SGs,Bi2 O12 P3,48944,14,mp-26100,49119,14,mp-26286,0.00899,0.0263,0.163,,
same SGs,Fe1 O8 S2,169748,146,mp-773394,168691,146,mp-771582,0.00386,0.0065,0.281,,
diff. SGs,Ca1 F3 K1,108466,11,mp-643749,1850,62,mp-5926,0.00185,0.0485,0.0085,"(0.111,0.166)",similar
diff. SGs,Ca1 F6 Sn1,8352,148,mp-4782,8345,225,mp-8224,0.00141,0.0302,1.02,"(0.128,0.148)",similar
diff. SGs,Co1 Cu4 O8,160816,2,mp-773271,174138,12,mp-773277,0.014,0,0.592,"(0.0333,0.0642)",different
diff. SGs,Ba2 O6 Pr1 Ru1,84663,12,mp-6183,34412,225,mp-12912,0.00484,0.0792,0.0778,"(0.08,0.12)",similar
diff. SGs,Ba3 Ca1 O9 Ru2,39808,190,mp-541485,37558,194,mp-6443,0.000963,0.0804,0.00705,"(0.0468,0.0633)",similar
diff. SGs,Ce1 Nb1 O4,29923,88,mp-557564,16128,15,mp-7550,0.00563,0,0.438,"(0.0744,0.106)",similar
diff. SGs,I1 O3 Tl1,42614,221,mp-546200,10072,160,mp-22981,0.242,2.76,3.93,"(0.107,0.111)",different
diff. SGs,H3 O3 Tb1,150626,176,mp-625416,150625,11,mp-625415,0.00214,0.0867,0.0358,"(0.123,0.23)",similar
diff. SGs,H3 O3 Tb1,150625,11,mp-625415,87803,176,mp-24121,0.00252,0.127,0.0608,"(0.124,0.306)",different
diff. SGs,K6 O7 Ti2,86399,7,mp-560228,46289,14,mp-5455,0.000314,0.0061,0.0368,"(0.0189,0.0282)",similar
diff. SGs,Br6 Rb2 Sb1,47803,141,mp-540811,37422,88,mp-568477,0.000917,0.0061,0.0701,"(0.0494,0.0863)",similar
same SGs,H3 O3 Tb1,150626,176,mp-625416,87803,176,mp-24121,0.000375,0.214,0.0966,,
same SGs,Co1 H12 O10 S1,155289,15,mp-745190,103843,15,mp-743637,0.0231,0.134,0.299,,
same SGs,Ca2 F1 Na1 O8 Si2 Ti1,152097,1,mp-667200,85559,1,mp-647450,0.0032,0.344,0.154,,
same SGs,H2 O2 Sr1,150546,62,mp-625191,88432,62,mp-27425,0.00444,0.0709,0.259,,
diff. SGs,Cu1 H2 O2,150526,9,mp-625181,88766,36,mp-505105,0.0107,0.262,0.0359,"(0.236,0.467)",different
diff. SGs,Cu1 H2 O2,150525,4,mp-625179,88766,36,mp-505105,0.00499,0.124,0.232,"(0.136,0.261)",different
diff. SGs,Ba1 H2 N2 O5,88683,170,mp-541657,88678,169,mp-541221,0.000591,0.0275,0.0435,"(0.0313,0.0689)",similar
diff. SGs,Fe1 H1 Li1 O5 P1,125548,2,mp-771864,153041,1,mp-705884,0.00193,0.0978,0.0568,"(0.0468,0.109)",similar
diff. SGs,H2 O2 Sr1,150546,62,mp-625191,150545,26,mp-625184,0.00255,0.0135,0.0929,"(0.117,0.359)",similar
diff. SGs,H2 O2 Sr1,150545,26,mp-625184,88432,62,mp-27425,0.00189,0.0574,0.166,"(0.133,0.314)",similar
diff. SGs,Cs1 H24 O20 S2 Ti1,113332,205,mp-699489,113333,61,mp-699488,0.000431,0.0011,0.00398,"(0.017,0.0317)",similar
diff. SGs,Li1 Mo2 O4,151685,74,mp-636380,88426,15,mp-25576,0.0277,0.13,0.416,"(0.0195,0.0261)",different
diff. SGs,H2 Ti1,88024,225,mp-24161,87986,139,mp-24726,0.00192,0.0161,0.0296,"(3.29e-16,4.45e-16)",similar
diff. SGs,Dy3 Ge4,150418,36,mp-612918,16181,63,mp-655448,0.00132,0.0096,0.174,"(0.0306,0.0607)",similar
same SGs,B1 H3 O3,98026,2,mp-697183,87678,2,mp-23791,0.00431,0.0084,0.0117,,
diff. SGs,Ba1 Fe1 O10 Si4,5640,18,mp-504885,2884,129,mp-603263,0.00908,0.0981,0.115,"(0.15,0.267)",similar
diff. SGs,Al1 B1 Ba1 F2 O3,86760,190,mp-558491,22065,176,mp-10510,7.74e-05,0.0205,0.031,"(0.244,0.563)",similar
diff. SGs,F3 Ni1,84614,167,mp-561428,20749,148,mp-614777,0.0258,0,0.278,"(0.0197,0.0228)",different
diff. SGs,Ca1 Cu3 O12 Ti4,36493,229,mp-647452,7924,204,mp-22592,0.387,0.0602,1.19,"(0.237,0.306)",different
diff. SGs,Ga1 Nb4 S8,34749,-1,mp-641874,3221,216,mp-4139,0.000497,0.0251,0.00618,"(0.0158,0.0209)",similar
same SGs,H2 Na1 O4 S1,154402,62,mp-706679,89137,62,mp-721314,0.134,5.28,1,,
diff. SGs,As1 Cr2 H1 K2 O10,100056,145,mp-744205,100055,144,mp-744181,6.91e-05,0.0171,0.00317,"(0.0377,0.149)",similar
diff. SGs,Ag3 O4 P1,7766,223,mp-558154,1290,218,mp-4198,1.22,0.175,0.576,"(0.293,0.415)",different
diff. SGs,H2 Mg1 O2,150892,5,mp-626143,88167,164,mp-30247,0.00894,0.0144,0.113,"(0.161,0.224)",similar
diff. SGs,Cd1 Cr2 H14 N4 O8,87823,2,mp-24929,106377,12,mp-743876,0.00203,0.0502,0.236,"(0.0954,0.176)",similar
diff. SGs,C2 Li2 Mn1 O6,166019,1,mp-767721,166011,14,mp-767444,0.00847,0.139,0.119,"(0.139,0.539)",different
same SGs,Be1 F4 Sm1,85242,33,mp-505432,17777,33,mp-573044,0.00275,0.101,0.222,,
diff. SGs,Na4 O12 Si3 Zr2,44078,161,mp-555472,23605,167,mp-6150,0.000287,0.0109,0.0244,"(0.111,0.248)",similar
diff. SGs,Cl3 Cr1 Rb1,43459,15,mp-30027,36798,5,mp-568864,0.000764,0.0246,0.188,"(0.0205,0.0477)",similar
diff. SGs,Cs1 O4 P1 Zn1,40438,62,mp-18673,40437,33,mp-559752,0.0125,0.0776,0.37,"(0.103,0.165)",different
diff. SGs,Mn1 O3 Sr1,34715,20,mp-568977,17431,194,mp-19001,0.00833,0.184,0.0288,"(0.0386,0.0613)",different
diff. SGs,O6 Pb3 S1,10036,2,mp-559143,10035,11,mp-22023,0.00189,0.0581,0.181,"(0.0548,0.121)",similar
diff. SGs,Cu2 H12 Mg2 O15 P2,174220,9,mp-759001,155630,15,mp-740757,0.0039,0.318,0.00794,"(0.0364,0.111)",different
diff. SGs,Ba14 Ir8 O33 Pd3,155595,5,mp-738639,44508,150,mp-680547,0.0271,0.023,0.116,"(0.115,0.355)",different
diff. SGs,Cr1 F4 Sr1,87405,72,mp-566608,10454,140,mp-558281,0.127,1.19,0.0345,"(0.249,0.43)",different
diff. SGs,Mn4 Si7,87409,54,mp-568121,44068,116,mp-680339,0.000622,0.705,0.0371,"(0.037,0.0754)",different
diff. SGs,Ba2 Co1 O4,84772,14,mp-19625,40131,62,mp-19602,0.00564,0.123,0.207,"(0.115,0.196)",different
diff. SGs,H2 O9 Si4,151167,1,mp-627944,151164,15,mp-627632,0.0166,0.0177,0.169,"(0.142,0.45)",different
diff. SGs,Cr3 S4,174874,11,mp-849071,16571,12,mp-964,0.0195,0.0052,0.643,"(0.0216,0.0328)",different
diff. SGs,F14 Fe3 Na5,85596,136,mp-554284,33843,14,mp-566089,0.0213,0.0548,0.497,"(0.157,0.277)",different
diff. SGs,Pt2 Te3,42302,12,mp-570562,11077,166,mp-541180,0.00762,0.112,0.0478,"(0.0337,0.0479)",different
diff. SGs,K1 O18 W6,152301,162,mp-690117,87180,191,mp-34278,0.000404,0.218,0.0198,"(0.031,0.0617)",different
diff. SGs,Bi2 O11 Sr6,166087,11,mp-766135,152294,129,mp-675103,0.0421,1.07,1.17,"(0.157,0.512)",different
diff. SGs,Co3 Li9 O29 P8,86854,15,mp-585361,49772,165,mp-585348,0.0198,0.963,0.399,"(0.029,0.056)",different
same SGs,Co5 Li6 O28 P8,85735,2,mp-504376,49805,2,mp-705429,0.0258,0.158,0.214,,
same SGs,B1 Fe12 Si2 Zr1,152103,217,mp-667335,85657,217,mp-653838,0.128,0.0134,0.146,,