category,composition,snlgroup_id 1,sg_num 1,task_id 1,snlgroup_id 2,sg_num 2,task_id 2,delta_energy,delta_bandgap,delta_volume_per_atom,rms_dist,scenario
diff. SGs,O2 Si1,48012,36,mp-557264,48011,64,mp-559313,0.00368,0.0663,1.24,"(0.159,0.257)",similar
diff. SGs,F4 Li1 V1,174098,59,mp-776513,174027,65,mp-766906,5.8e-05,0.0444,0.0207,"(0.0136,0.021)",similar
diff. SGs,O2 V1,154926,28,mp-715035,84948,139,mp-25792,0.0249,0.498,0.179,"(0.0304,0.0448)",different
diff. SGs,O2 V1,154926,28,mp-715035,154934,1,mp-715517,0.00321,0.155,0.00425,"(0.0324,0.0617)",different
diff. SGs,O2 V1,84948,139,mp-25792,154934,1,mp-715517,0.0281,0.653,0.184,"(0.0284,0.0396)",different
diff. SGs,O2 V1,154923,12,mp-714944,87776,166,mp-25615,0.0411,0.671,0.164,"(0.00976,0.012)",different
diff. SGs,Fe3 O4,154942,12,mp-715614,150415,8,mp-612405,0.0224,0.351,0.17,"(0.0357,0.0643)",different
diff. SGs,Fe3 O4,85322,51,mp-542433,3255,227,mp-19306,0.0508,0.0042,0.194,"(0.043,0.0572)",different
diff. SGs,Fe3 O4,85322,51,mp-542433,154944,12,mp-715811,0.0369,0.287,0.114,"(0.037,0.0576)",different
diff. SGs,Fe3 O4,85322,51,mp-542433,9100,74,mp-31770,0.035,0.449,0.0231,"(0.0279,0.0404)",different
diff. SGs,Fe3 O4,85322,51,mp-542433,154946,53,mp-716052,0.0381,0.262,0.124,"(0.0365,0.0679)",different
diff. SGs,Fe3 O4,85322,51,mp-542433,154938,166,mp-715558,0.0367,0.273,0.109,"(0.0341,0.0536)",different
diff. SGs,Fe3 O4,3255,227,mp-19306,154944,12,mp-715811,0.0139,0.291,0.0794,"(0.022,0.0339)",different
diff. SGs,Fe3 O4,154944,12,mp-715811,9100,74,mp-31770,0.00196,0.163,0.0911,"(0.0363,0.0613)",different
diff. SGs,Fe3 O4,154944,12,mp-715811,154946,53,mp-716052,0.00121,0.0243,0.00952,"(0.0205,0.043)",similar
diff. SGs,Fe3 O4,154944,12,mp-715811,154938,166,mp-715558,0.000212,0.0138,0.00507,"(0.00828,0.0161)",similar
diff. SGs,O3 W1,154130,221,mp-715469,151684,63,mp-636289,0.000593,0.2,0.0855,"(0.0591,0.115)",different
diff. SGs,O3 W1,154167,191,mp-715590,49979,185,mp-32662,0.00181,0.349,0.00219,"(0.131,0.169)",different
diff. SGs,O3 W1,87305,193,mp-32777,7923,191,mp-559175,0.00158,0.143,0.00729,"(0.0258,0.0479)",different
diff. SGs,O3 W1,33321,221,mp-19390,154945,51,mp-715923,0.000511,0.34,0.00338,"(0.0115,0.0132)",different
diff. SGs,O2 Ti1,152055,35,mp-655656,85538,25,mp-636827,0.00263,0.0641,0.00733,"(0.0431,0.0758)",similar
diff. SGs,Co2 Li1 O4,174631,4,mp-774082,54302,227,mp-25471,0.104,0.628,0.473,"(0.0396,0.0576)",different
diff. SGs,Ca1 O3 Si1,36167,204,mp-4356,36166,139,mp-4853,0.000531,0.0191,0.00617,"(0.03,0.0462)",similar
diff. SGs,Fe1 O1,7462,225,mp-18905,84557,139,mp-715262,0.414,0,0.639,"(0,0)",different
diff. SGs,Nb1 Se2,15974,194,mp-2207,15979,63,mp-618883,0.00435,0,1.25,"(0.00981,0.0166)",similar
diff. SGs,Ag1 I1,152849,119,mp-684580,4105,216,mp-22925,0.0017,0.0532,0.0279,"(1e-16,1e-16)",similar
diff. SGs,Mo1 O2,28921,136,mp-510536,154935,58,mp-715550,0.0131,0,0.03,"(0.0239,0.0297)",different
diff. SGs,Cu1 O2,1066,63,mp-601195,154129,69,mp-704690,0.000373,0.23,5.53,"(0.108,0.109)",different
diff. SGs,Ba1 Mn1 O3,21678,185,mp-19267,11354,194,mp-19156,0.0077,0.143,0.239,"(0.0373,0.0584)",different
diff. SGs,Cu1 Ge1 O3,86705,64,mp-561216,11359,51,mp-21344,0.00377,0.111,0.121,"(0.0412,0.066)",different
diff. SGs,Te1,84733,51,mp-105,84711,221,mp-10654,0.00183,0,0.125,"(0,0)",similar
diff. SGs,Cu3 O8 Pb2 Sr2 Y1,39247,26,mp-578628,101895,17,mp-643629,0.0223,0.0612,1.03,"(0.0764,0.287)",different
diff. SGs,Fe1 S1,12802,186,mp-616476,9180,62,mp-21410,0.0317,0.0219,1.19,"(0.0242,0.0322)",different
diff. SGs,Fe1 S1,12802,186,mp-616476,174872,164,mp-849057,0.078,0,0.313,"(0.0331,0.0437)",different
diff. SGs,Fe1 S1,12802,186,mp-616476,7482,194,mp-2099,0.0577,0,1.23,"(0.0227,0.0388)",different
diff. SGs,Fe1 S1,9180,62,mp-21410,174872,164,mp-849057,0.0462,0.0219,0.874,"(0.0283,0.0365)",different
diff. SGs,Fe1 S1,9180,62,mp-21410,7482,194,mp-2099,0.0259,0.0219,2.42,"(0.0292,0.0361)",different
diff. SGs,O3 Pb2,153180,6,mp-690722,152051,12,mp-655547,0.00432,0.0451,0.239,"(0.0235,0.047)",similar
diff. SGs,F3 La1,4944,225,mp-13181,2423,139,mp-323,0.00935,0.0496,0.0328,"(3.68e-16,6.07e-16)",similar
diff. SGs,Br1 Cu1,86058,119,mp-32880,7616,216,mp-22913,0.00455,0.0379,0.0582,"(7.8e-17,7.8e-17)",similar
diff. SGs,Na1 O5 V2,34311,31,mp-505821,43938,42,mp-565227,0.00379,0.784,0.129,"(0.139,0.235)",different
diff. SGs,Na1 O5 V2,43938,42,mp-565227,18397,59,mp-19111,0.00907,0.027,0.0915,"(0.0148,0.029)",similar
diff. SGs,C2 Ca1,151768,2,mp-642822,21991,12,mp-917,0.0103,0.16,0.128,"(0.136,0.142)",different
diff. SGs,Ca1 O3 Ti1,85408,74,mp-556003,1719,140,mp-3442,0.00745,0.234,0.00139,"(0.111,0.166)",different
diff. SGs,O13 V6,154941,63,mp-715617,10075,69,mp-566482,0.00414,0.276,0.0962,"(0.0434,0.0675)",different
diff. SGs,F5 K2 Sb1,85619,14,mp-613518,37176,63,mp-3379,0.0392,0.0938,0.988,"(0.231,0.299)",different
diff. SGs,O5 V3,26257,15,mp-542441,154920,9,mp-714911,0.0228,1.02,0.058,"(0.0222,0.0358)",different
diff. SGs,Cr2 O12 P3,85217,167,mp-540211,49417,148,mp-540340,0.00368,0.01,0.175,"(0.155,0.229)",similar
diff. SGs,Cr2 O12 P3,85217,167,mp-540211,49357,2,mp-540317,0.00393,0.021,0.175,"(0.129,0.218)",similar
diff. SGs,O8 W3,84830,65,mp-19066,154936,8,mp-715557,0.011,0.728,0.0553,"(0.0157,0.0227)",different
diff. SGs,Cr1 O2,87812,166,mp-25499,154922,12,mp-714929,0.0305,0.0835,0.543,"(0.0389,0.0511)",different
diff. SGs,Ba1 O3 Tb1,42513,167,mp-548824,21080,74,mp-5735,0.000987,0,0.00268,"(0.0508,0.0838)",similar
diff. SGs,Ba1 O3 Tb1,42513,167,mp-548824,19550,62,mp-20129,0.000456,0.008,0.00356,"(0.0896,0.127)",similar
diff. SGs,Ba1 O3 Tb1,21080,74,mp-5735,31359,140,mp-2939,0.00464,0,0.0544,"(0.0621,0.103)",similar
diff. SGs,Ba1 O3 Tb1,21080,74,mp-5735,19550,62,mp-20129,0.000531,0.008,0.000882,"(0.0513,0.0737)",similar
diff. SGs,O9 Rb1 W3,87230,191,mp-565431,85137,10,mp-19617,0.0037,0,0.0524,"(0.00689,0.0197)",similar
diff. SGs,Ca1 O5 Si1 Ti1,9205,14,mp-6109,9202,15,mp-6440,8.99e-05,0.0448,0.0143,"(0.017,0.0432)",similar
diff. SGs,Ag1 Ge1 O3,174794,18,mp-779706,174792,26,mp-779664,0.00435,0.0157,0.584,"(0.0331,0.0497)",similar
diff. SGs,O1 Sn1,86987,64,mp-545820,7249,129,mp-2097,0.00099,0.126,0.327,"(0.0275,0.0304)",different
diff. SGs,Ba1 S3 V1,34204,8,mp-542818,10410,20,mp-555857,0.00278,0.0063,0.0413,"(0.051,0.08)",similar
diff. SGs,Ba1 S3 V1,34204,8,mp-542818,1993,36,mp-3451,0.00069,0.0063,0.0317,"(0.0204,0.0386)",similar
diff. SGs,Ba1 S3 V1,34204,8,mp-542818,1992,194,mp-4227,0.0132,0.0063,0.0876,"(0.0509,0.102)",different
diff. SGs,Cu2 O3 Sr1,84630,59,mp-3255,6949,65,mp-5938,0.00055,0,0.00181,"(0.0197,0.0352)",similar
diff. SGs,Cr1 O4 W1,85053,69,mp-609356,84826,65,mp-18785,0.0551,1.67,0.0738,"(0.0249,0.0482)",different
diff. SGs,Cr1 O4 W1,85053,69,mp-609356,8537,12,mp-608594,0.0343,0,0.104,"(0.0427,0.0847)",different
diff. SGs,Cr1 O4 W1,84826,65,mp-18785,8537,12,mp-608594,0.0894,1.67,0.178,"(0.0452,0.0698)",different
diff. SGs,Ga1 Mn1 Ni2,2361,225,mp-20228,1748,139,mp-601285,7.14e-05,0.034,0.0374,"(5e-16,8.19e-16)",similar
diff. SGs,Ca2 Fe1 O6 W1,85066,44,mp-541519,150439,166,mp-619611,0.0403,0.761,0.293,"(0.0313,0.0582)",different
diff. SGs,Ca2 Fe1 O6 W1,85066,44,mp-541519,15493,225,mp-19059,0.013,1.65,0.371,"(0.011,0.0142)",different
diff. SGs,Ce2 O2 Sb1,152962,12,mp-685137,8828,139,mp-20356,0.0352,0.0002,0.313,"(0.0109,0.0169)",different
diff. SGs,Rb2 Te1,36113,62,mp-568745,36110,194,mp-383,0.000367,0.0007,0.11,"(0.0185,0.0224)",similar
diff. SGs,O1 V1,154252,166,mp-714885,2550,225,mp-19184,0.124,0.319,0.45,"(2.64e-05,2.64e-05)",different
diff. SGs,Fe1 H1 Li1 O5 P1,125548,2,mp-771864,153041,1,mp-705884,0.00193,0.0978,0.0568,"(0.0441,0.0931)",similar
diff. SGs,H2 Ti1,88024,225,mp-24161,87986,139,mp-24726,0.00192,0.0161,0.0296,"(3.35e-16,4.6e-16)",similar
diff. SGs,Ga1 Nb4 S8,34749,-1,mp-641874,3221,216,mp-4139,0.000497,0.0251,0.00618,"(0.0138,0.0207)",similar
diff. SGs,Cr3 S4,174874,11,mp-849071,16571,12,mp-964,0.0195,0.0052,0.643,"(0.0124,0.0209)",different
diff. SGs,Al4 La1,85698,44,mp-571423,44141,139,mp-21109,0.000646,0.0105,0.0116,"(0.0206,0.0308)",similar
diff. SGs,Ni1 Zn1,45730,123,mp-429,30920,221,mp-1486,0.0272,0.138,0.0198,"(4.81e-17,4.81e-17)",different
diff. SGs,Ca2 O6 Pd1 W1,84634,44,mp-25183,15861,225,mp-19159,0.0405,0.0074,0.511,"(0.122,0.229)",different
diff. SGs,Cl6 K2 Sn1,47365,14,mp-571453,47352,128,mp-570173,0.0066,0.207,0.186,"(0.0784,0.104)",different
diff. SGs,Bi1 Ce1,33068,221,mp-639445,25968,123,mp-635471,0.0057,0.0025,0.789,"(7.45e-17,7.45e-17)",similar
diff. SGs,C2 Fe5,151954,13,mp-645339,19055,15,mp-2794,0.00838,0.009,0.0324,"(0.0191,0.0388)",similar
diff. SGs,O2 Si1,1800,154,mp-6930,1799,152,mp-7000,0.000335,0.0134,0.0138,"(3.84e-16,6.7e-16)",similar
diff. SGs,Pu1 Sb1,596,221,mp-21263,595,123,mp-19933,0.0513,0.011,0.0798,"(7.84e-17,7.84e-17)",different
diff. SGs,Au1 Mn1,68,123,mp-12675,67,221,mp-12674,0.00528,0.0458,0.0482,"(4.33e-17,4.33e-17)",similar
diff. SGs,Ir1 Ti1,45559,123,mp-1235,33282,221,mp-12594,0.0951,0.0089,0.0985,"(4.51e-17,4.51e-17)",different
diff. SGs,Nb1 Ru1,45675,123,mp-432,27371,221,mp-11516,0.0249,0.0415,0.00159,"(4.4e-17,4.4e-17)",different
diff. SGs,Er1 Tl1,30564,123,mp-1054,30562,221,mp-217,0.00464,0.0207,0.187,"(3.78e-17,3.78e-17)",similar
diff. SGs,Cd1 Ce1,44923,123,mp-11291,30026,221,mp-183,0.00248,0.0001,0.00652,"(1.09e-16,1.09e-16)",similar
diff. SGs,Sm1 Tl1,45865,123,mp-2541,27684,221,mp-11568,0.00582,0.192,0.158,"(7.32e-17,7.32e-17)",different
diff. SGs,Rh1 Ti1,27648,221,mp-11563,27647,123,mp-2583,0.0275,0.0187,0.0717,"(2.24e-16,2.24e-16)",different
diff. SGs,Mn1 Pd1,27258,221,mp-1902,27257,123,mp-238,0.0122,0.073,0.00391,"(4.8e-17,4.8e-17)",different
diff. SGs,H2 Zr1,88101,139,mp-24286,87880,225,mp-24155,0.00761,0.0066,0.013,"(2.52e-16,3.44e-16)",similar
diff. SGs,Mn1 Ni1,27248,221,mp-11500,27247,123,mp-1797,0.00451,0.108,0.0334,"(4.77e-17,4.77e-17)",different
diff. SGs,Gd1 In1,26941,123,mp-19819,26940,221,mp-21005,0.00822,0.0053,0.808,"(3.68e-17,3.68e-17)",similar
diff. SGs,Ru1 Ta1,45862,221,mp-12110,27658,123,mp-1601,0.0446,0.0293,0.0177,"(1.32e-16,1.32e-16)",different
diff. SGs,I3 Zr1,13984,59,mp-570188,8080,193,mp-23282,0.00214,0.251,1.8,"(0.0135,0.0249)",different
diff. SGs,Al1 Mn1,30215,221,mp-12067,24365,123,mp-771,0.0462,0.0024,0.455,"(1.4e-16,1.4e-16)",different
diff. SGs,P3 Tc2,28378,12,mp-11690,18665,2,mp-9895,0.00504,0.0088,0.0464,"(0.0285,0.0419)",similar
diff. SGs,Br3 Ru1,29432,193,mp-22892,1673,59,mp-23294,0.00161,0,0.779,"(0.0202,0.0284)",similar
diff. SGs,Mo1 O15 P5,85668,11,mp-504210,49003,14,mp-696012,0.00363,1.34,0.0356,"(0.0585,0.157)",different