category,composition,snlgroup_id 1,sg_num 1,task_id 1,snlgroup_id 2,sg_num 2,task_id 2,delta_energy,delta_bandgap,delta_volume_per_atom,rms_dist,scenario
diff. SGs,Mn1 O8 Re2,86703,164,mp-31907,20932,147,mp-627380,0.302,2.9,2.8,"(0.0912,0.116)",different
same SGs,O5 Te1 Tl1 V1,48498,33,mp-705050,32840,33,mp-639714,0.0154,0.374,0.141,,
diff. SGs,Co1 F6 Zr1,16002,225,mp-555491,16001,148,mp-556456,0.0272,0,0.64,"(0.159,0.184)",different
diff. SGs,O7 Sr2 Ta2,16165,36,mp-13664,10742,63,mp-12286,6.05e-05,0.0187,0.00765,"(0.0416,0.0801)",similar
diff. SGs,Cu1 Sb1 Yb1,28406,186,mp-11701,16094,194,mp-9439,0.00143,0.216,1.01,"(0.0193,0.0241)",different
diff. SGs,Bi2 Cd1 Ge1 O6,40518,60,mp-555027,15700,14,mp-554740,0.000275,0.0185,0.0209,"(0.0417,0.0657)",similar
diff. SGs,Ag5 O6 Pb2,28945,157,mp-555565,2282,162,mp-22286,0.000152,0.0121,0.0252,"(0.0389,0.064)",similar
diff. SGs,Nb1 P1,20188,141,mp-9830,15417,109,mp-9339,0.602,0.442,0.0987,"(0.187,0.187)",different
diff. SGs,C1 F3 Na1 O2 Sb1,40779,9,mp-554716,29042,15,mp-554239,0.000271,0.0032,0.077,"(0.0406,0.0597)",similar
diff. SGs,Ru1 Ta1,45862,221,mp-12110,27658,123,mp-1601,0.0446,0.0293,0.0177,"(0,0)",different
diff. SGs,Ba1 O8 P2 Zr1,34101,12,mp-556139,32824,164,mp-560620,0.00613,0.336,0.222,"(0.185,0.32)",different
diff. SGs,Li1 Nb1 O4 Zn1,39768,91,mp-6146,14319,95,mp-18037,3.26e-06,0.0002,0.000245,"(0.0471,0.113)",similar
diff. SGs,Fe1 Mo2 O8 Rb1,35616,147,mp-645665,4986,164,mp-18868,0.000256,0.0517,0.38,"(0.0896,0.126)",similar
diff. SGs,Ba2 Cr1 O4,39220,62,mp-19703,6952,33,mp-566511,0.000133,0.0921,0.0486,"(0.0631,0.12)",similar
diff. SGs,F5 K3 Np1 O2,37815,141,mp-559638,17353,88,mp-9637,0.00979,0.0701,0.21,"(0.102,0.158)",similar
diff. SGs,Nb1 Si2,30888,181,mp-12104,1325,180,mp-2478,1.73e-07,0,0.00233,"(0.00833,0.0102)",similar
same SGs,Ga1 K1 O2,41391,61,mp-679975,12188,61,mp-4066,0.0237,0.201,0.403,,
same SGs,Fe1 Ge1 Si1,33701,64,mp-640080,33700,64,mp-640075,0.0165,0.236,0.0377,,
same SGs,Mn1 O1,154139,225,mp-714882,3103,225,mp-19006,0.0332,1.13,0.159,,
same SGs,Ge3 Nd5,47460,193,mp-1465,22084,193,mp-1464,0.271,0.0277,0.627,,
diff. SGs,Cl1 Fe1 Mo1 O4,88040,11,mp-25525,9360,129,mp-24968,0.000589,0.0943,0.0975,"(0.105,0.175)",similar
diff. SGs,C1 N2 Pb1,21466,62,mp-19727,16572,33,mp-619032,0.00382,0.0291,0.472,"(0.0346,0.0444)",similar
diff. SGs,Al3 C3 Sc1,41786,186,mp-568400,10185,194,mp-4798,0.000427,0.0788,0.0156,"(0.0246,0.0564)",similar
diff. SGs,Cu1 F6 Mo1,85772,148,mp-556093,11399,2,mp-611706,0.0404,0.0006,0.168,"(0.0617,0.088)",different
diff. SGs,Li1 Mo2 O8 P1,87023,19,mp-32123,48782,4,mp-704183,0.0162,1.08,0.558,"(0.115,0.325)",different
diff. SGs,Na2 O7 V3,42556,159,mp-555416,4691,147,mp-567133,0.00118,0.0094,0.0121,"(0.0614,0.148)",similar
same SGs,Li1 Nb1 O12 Te2 W1,160612,1,mp-770746,156458,1,mp-764339,0.00298,0.0723,0.00326,,
same SGs,K1 O3 S1,36840,150,mp-558546,955,150,mp-541581,0.000883,0.0297,0.984,,
diff. SGs,Ag1 S3 Ta1,16305,63,mp-5821,15048,36,mp-561242,0.000171,0.0027,0.000708,"(0.0234,0.0307)",similar
diff. SGs,I3 Zr1,13984,59,mp-570188,8080,193,mp-23282,0.00214,0.251,1.8,,different
diff. SGs,Cd1 K1 N3 O6,24940,146,mp-11017,2543,200,mp-22770,1.04,2.21,4.7,"(0.17,0.207)",different
diff. SGs,Al1 Mn1,30215,221,mp-12067,24365,123,mp-771,0.0462,0.0024,0.455,"(0,0)",different
diff. SGs,Br6 Rb2 Te1,10513,225,mp-23383,9361,87,mp-570324,0.00106,0.0461,0.284,"(0.0464,0.0695)",similar
diff. SGs,Br3 Ti1,8994,2,mp-28214,8714,148,mp-571065,0.00184,0.0152,0.924,"(0.0128,0.0155)",similar
diff. SGs,Cd1 N3 O6 Rb1,24939,146,mp-11016,2568,200,mp-22597,1.03,2.35,4.54,"(0.167,0.197)",different
same SGs,Re2 Te5,47703,61,mp-672714,8463,61,mp-583070,0.0222,0.043,1.63,,
diff. SGs,In3 Ru1,47876,118,mp-672326,6815,136,mp-607450,0.000458,0.0349,0.0274,"(0.0235,0.0335)",similar
diff. SGs,O1 Tl2,23220,12,mp-551470,15786,166,mp-27484,0.000237,0.052,0.25,"(0.0264,0.0455)",similar
diff. SGs,Au7 I1 P10,12060,189,mp-27370,7913,162,mp-570238,0.0135,0.0313,0.166,"(0.232,0.568)",different
diff. SGs,Cl3 Ga1,28168,12,mp-30952,7660,2,mp-571266,0.00124,4.2,0.579,"(0.0391,0.0681)",different
diff. SGs,La1 Nb1 O4,8491,88,mp-5295,7529,15,mp-542724,0.000991,0.329,0.24,"(0.068,0.0941)",different
same SGs,C4 Cl4 Co1 H16 N2,375,14,mp-600196,374,14,mp-568314,0.00181,0.833,0.0894,,
same SGs,Co1 O3 Y1,51666,62,mp-34710,2618,62,mp-24878,0.0057,1.32,0.592,,
same SGs,Cr3 O8 Tl1,174599,12,mp-775208,2409,12,mp-565782,0.000127,0.0013,0.0672,,
same SGs,H12 Na2 Ni1 O14 S2,87109,14,mp-542864,3350,14,mp-603679,0.0117,0.0745,0.0939,,
diff. SGs,Ca2 K2 O12 S3,41558,19,mp-15600,41557,198,mp-15599,0.00246,0.193,0.432,"(0.181,0.327)",different
diff. SGs,Br4 Cs2 I2 Pd1,6947,139,mp-543024,6946,12,mp-23099,0.00367,0.0093,0.0254,"(0.0718,0.0795)",similar
diff. SGs,Cu1 K2 N6 O12 Pb1,31448,202,mp-19863,8407,196,mp-608162,0.0329,0.909,1.3,"(0.0655,0.0861)",different
diff. SGs,P3 Tc2,28378,12,mp-11690,18665,2,mp-9895,0.00504,0.0088,0.0464,,similar
diff. SGs,Ba3 Nd1 O9 Ru2,24154,15,mp-6580,24153,194,mp-6018,5.36e-06,0.0094,0.00112,"(0.0411,0.0667)",similar
diff. SGs,Ba2 Nb1 Nd1 O6,33514,225,mp-12637,5510,12,mp-6167,0.0156,0.135,0.194,"(0.14,0.194)",different
diff. SGs,Co1 S2,174901,61,mp-850049,16881,205,mp-2070,0.0162,0,0.0819,"(0.0071,0.0089)",different
diff. SGs,Ba2 Eu1 Nb1 O6,33513,225,mp-22279,5845,87,mp-13323,0.00948,0.006,0.0558,"(0.127,0.174)",similar
diff. SGs,Cu1 Er1 S2,34547,19,mp-559826,32299,62,mp-12454,0.00606,0.116,0.202,"(0.0645,0.0826)",different
diff. SGs,Bi1 Cl8 F4 H3 K6,102448,194,mp-723540,95639,186,mp-696998,0.000819,0.0183,0.0396,"(0.0512,0.095)",similar
diff. SGs,Ag2 C4 N4 S4 Zn1,36903,9,mp-648573,13034,15,mp-559335,0.00634,0.0615,1.19,"(0.0214,0.0358)",similar
diff. SGs,Ba3 Ge4,18407,136,mp-21596,18406,65,mp-9858,3.15e-05,0.0404,0.694,"(0.0468,0.107)",similar
diff. SGs,O5 P1 Ti1 Tl1,45101,33,mp-6706,26330,52,mp-559607,0.00371,0.333,0.0692,"(0.0829,0.221)",different
diff. SGs,Eu2 O4 Si1,28475,62,mp-504653,28336,14,mp-554546,0.00853,0.322,0.0876,"(0.0846,0.145)",different
diff. SGs,As2 Ba1 Co2 O8,85523,2,mp-554725,7196,148,mp-19143,0.0856,1.54,0.143,"(0.037,0.0571)",different
diff. SGs,Cl6 Nb1 Rb2,5742,139,mp-570558,5741,225,mp-571513,0.00639,0.301,0.488,"(0.0125,0.0253)",different
diff. SGs,In1 Ni2 Zr2,25038,136,mp-632502,6480,127,mp-19906,0.00415,0.0363,0.093,"(0.0306,0.0432)",similar
diff. SGs,Ba4 Ir3 O10,44276,64,mp-17689,37063,14,mp-17102,0.00407,0.104,0.0335,"(0.0522,0.139)",different
diff. SGs,Bi1 Cu1 Yb1,5156,186,mp-22953,5155,194,mp-22960,0.0316,0.0837,0.838,"(0.0535,0.0739)",different
diff. SGs,C6 H24 Mo12 N3 O40 P1,100042,166,mp-745080,283,148,mp-600535,5.45e-05,0.0024,0.0134,"(0.00744,0.0232)",similar
diff. SGs,Br3 Ru1,29432,193,mp-22892,1673,59,mp-23294,0.00161,0,0.779,,similar
diff. SGs,Mo1 O15 P5,85668,11,mp-504210,49003,14,mp-696012,0.00363,1.34,0.0356,,different
diff. SGs,Bi1 Pd1,22533,36,mp-569727,6539,4,mp-23206,0.00346,0.0054,0.0347,"(0.0737,0.111)",similar
diff. SGs,Bi3 O7 Ta1,87200,8,mp-37030,53266,1,mp-36890,7.79e-05,0.215,0.00995,"(0.142,0.244)",different
diff. SGs,C6 Cu1 Fe1 K2 N6,28862,2,mp-568816,2588,225,mp-601952,0.0363,0.503,0.427,"(0.211,0.408)",different
diff. SGs,Mn2 U1,45648,74,mp-567695,935,227,mp-339,0.0165,0.0235,0.416,"(0.0159,0.0275)",different
diff. SGs,K3 O14 Sb5,34299,32,mp-557989,9632,55,mp-12156,7.97e-05,0.0003,0.00867,"(0.0484,0.102)",similar
diff. SGs,Ho3 O7 Re1,168306,63,mp-769395,35369,20,mp-558969,0.021,0,0.245,"(0.187,0.401)",different
diff. SGs,Ba3 Co1 Nb2 O9,87267,12,mp-561599,906,164,mp-600864,0.0597,1.5,0.161,"(0.026,0.0467)",different
diff. SGs,Cu2 Na9 O7,172644,29,mp-779478,171871,198,mp-777853,0.00888,1.53,0.0517,"(0.15,0.452)",different
diff. SGs,Si2 Ta1,25568,181,mp-11192,1326,180,mp-517,6.63e-07,0,0.00214,"(0.0306,0.0375)",similar
diff. SGs,Cl4 Co1 Rb2,42315,33,mp-571242,9616,62,mp-23076,0.00143,0.004,0.291,"(0.0492,0.1)",similar
diff. SGs,Ag1 Ga1 S2,43162,9,mp-556916,2824,122,mp-5342,0.00259,0.058,0.122,"(0.0692,0.0937)",similar
diff. SGs,C1 H1 O2 Tl1,1232,33,mp-558579,398,52,mp-557687,0.000814,0.0149,0.15,"(0.0604,0.0876)",similar
diff. SGs,Ni1 O4 Rh2,84951,227,mp-19307,27934,141,mp-636519,0.0834,0,0.0221,"(0.0226,0.0299)",different
diff. SGs,C3 Cl1 H10 N1 O4,275,11,mp-560498,274,4,mp-554570,0.000223,0.0087,0.196,"(0.115,0.243)",similar